# vtk DataFile Version 3.0
Malha 2D com triângulos e temperatura
ASCII
DATASET UNSTRUCTURED_GRID

POINTS 900 double
0 0 0
1 0 0
1 1 0
0 1 0
0.0344828 0 0
0.0689655 0 0
0.103448 0 0
0.137931 0 0
0.172414 0 0
0.206897 0 0
0.241379 0 0
0.275862 0 0
0.310345 0 0
0.344828 0 0
0.37931 0 0
0.413793 0 0
0.448276 0 0
0.482759 0 0
0.517241 0 0
0.551724 0 0
0.586207 0 0
0.62069 0 0
0.655172 0 0
0.689655 0 0
0.724138 0 0
0.758621 0 0
0.793103 0 0
0.827586 0 0
0.862069 0 0
0.896552 0 0
0.931034 0 0
0.965517 0 0
1 0.0344828 0
1 0.0689655 0
1 0.103448 0
1 0.137931 0
1 0.172414 0
1 0.206897 0
1 0.241379 0
1 0.275862 0
1 0.310345 0
1 0.344828 0
1 0.37931 0
1 0.413793 0
1 0.448276 0
1 0.482759 0
1 0.517241 0
1 0.551724 0
1 0.586207 0
1 0.62069 0
1 0.655172 0
1 0.689655 0
1 0.724138 0
1 0.758621 0
1 0.793103 0
1 0.827586 0
1 0.862069 0
1 0.896552 0
1 0.931034 0
1 0.965517 0
0.965517 1 0
0.931034 1 0
0.896552 1 0
0.862069 1 0
0.827586 1 0
0.793103 1 0
0.758621 1 0
0.724138 1 0
0.689655 1 0
0.655172 1 0
0.62069 1 0
0.586207 1 0
0.551724 1 0
0.517241 1 0
0.482759 1 0
0.448276 1 0
0.413793 1 0
0.37931 1 0
0.344828 1 0
0.310345 1 0
0.275862 1 0
0.241379 1 0
0.206897 1 0
0.172414 1 0
0.137931 1 0
0.103448 1 0
0.0689655 1 0
0.0344828 1 0
0 0.965517 0
0 0.931034 0
0 0.896552 0
0 0.862069 0
0 0.827586 0
0 0.793103 0
0 0.758621 0
0 0.724138 0
0 0.689655 0
0 0.655172 0
0 0.62069 0
0 0.586207 0
0 0.551724 0
0 0.517241 0
0 0.482759 0
0 0.448276 0
0 0.413793 0
0 0.37931 0
0 0.344828 0
0 0.310345 0
0 0.275862 0
0 0.241379 0
0 0.206897 0
0 0.172414 0
0 0.137931 0
0 0.103448 0
0 0.0689655 0
0 0.0344828 0
0.0344828 0.965517 0
0.0344828 0.931034 0
0.0344828 0.896552 0
0.0344828 0.862069 0
0.0344828 0.827586 0
0.0344828 0.793103 0
0.0344828 0.758621 0
0.0344828 0.724138 0
0.0344828 0.689655 0
0.0344828 0.655172 0
0.0344828 0.62069 0
0.0344828 0.586207 0
0.0344828 0.551724 0
0.0344828 0.517241 0
0.0344828 0.482759 0
0.0344828 0.448276 0
0.0344828 0.413793 0
0.0344828 0.37931 0
0.0344828 0.344828 0
0.0344828 0.310345 0
0.0344828 0.275862 0
0.0344828 0.241379 0
0.0344828 0.206897 0
0.0344828 0.172414 0
0.0344828 0.137931 0
0.0344828 0.103448 0
0.0344828 0.0689655 0
0.0344828 0.0344828 0
0.0689655 0.965517 0
0.0689655 0.931034 0
0.0689655 0.896552 0
0.0689655 0.862069 0
0.0689655 0.827586 0
0.0689655 0.793103 0
0.0689655 0.758621 0
0.0689655 0.724138 0
0.0689655 0.689655 0
0.0689655 0.655172 0
0.0689655 0.62069 0
0.0689655 0.586207 0
0.0689655 0.551724 0
0.0689655 0.517241 0
0.0689655 0.482759 0
0.0689655 0.448276 0
0.0689655 0.413793 0
0.0689655 0.37931 0
0.0689655 0.344828 0
0.0689655 0.310345 0
0.0689655 0.275862 0
0.0689655 0.241379 0
0.0689655 0.206897 0
0.0689655 0.172414 0
0.0689655 0.137931 0
0.0689655 0.103448 0
0.0689655 0.0689655 0
0.0689655 0.0344828 0
0.103448 0.965517 0
0.103448 0.931034 0
0.103448 0.896552 0
0.103448 0.862069 0
0.103448 0.827586 0
0.103448 0.793103 0
0.103448 0.758621 0
0.103448 0.724138 0
0.103448 0.689655 0
0.103448 0.655172 0
0.103448 0.62069 0
0.103448 0.586207 0
0.103448 0.551724 0
0.103448 0.517241 0
0.103448 0.482759 0
0.103448 0.448276 0
0.103448 0.413793 0
0.103448 0.37931 0
0.103448 0.344828 0
0.103448 0.310345 0
0.103448 0.275862 0
0.103448 0.241379 0
0.103448 0.206897 0
0.103448 0.172414 0
0.103448 0.137931 0
0.103448 0.103448 0
0.103448 0.0689655 0
0.103448 0.0344828 0
0.137931 0.965517 0
0.137931 0.931034 0
0.137931 0.896552 0
0.137931 0.862069 0
0.137931 0.827586 0
0.137931 0.793103 0
0.137931 0.758621 0
0.137931 0.724138 0
0.137931 0.689655 0
0.137931 0.655172 0
0.137931 0.62069 0
0.137931 0.586207 0
0.137931 0.551724 0
0.137931 0.517241 0
0.137931 0.482759 0
0.137931 0.448276 0
0.137931 0.413793 0
0.137931 0.37931 0
0.137931 0.344828 0
0.137931 0.310345 0
0.137931 0.275862 0
0.137931 0.241379 0
0.137931 0.206897 0
0.137931 0.172414 0
0.137931 0.137931 0
0.137931 0.103448 0
0.137931 0.0689655 0
0.137931 0.0344828 0
0.172414 0.965517 0
0.172414 0.931034 0
0.172414 0.896552 0
0.172414 0.862069 0
0.172414 0.827586 0
0.172414 0.793103 0
0.172414 0.758621 0
0.172414 0.724138 0
0.172414 0.689655 0
0.172414 0.655172 0
0.172414 0.62069 0
0.172414 0.586207 0
0.172414 0.551724 0
0.172414 0.517241 0
0.172414 0.482759 0
0.172414 0.448276 0
0.172414 0.413793 0
0.172414 0.37931 0
0.172414 0.344828 0
0.172414 0.310345 0
0.172414 0.275862 0
0.172414 0.241379 0
0.172414 0.206897 0
0.172414 0.172414 0
0.172414 0.137931 0
0.172414 0.103448 0
0.172414 0.0689655 0
0.172414 0.0344828 0
0.206897 0.965517 0
0.206897 0.931034 0
0.206897 0.896552 0
0.206897 0.862069 0
0.206897 0.827586 0
0.206897 0.793103 0
0.206897 0.758621 0
0.206897 0.724138 0
0.206897 0.689655 0
0.206897 0.655172 0
0.206897 0.62069 0
0.206897 0.586207 0
0.206897 0.551724 0
0.206897 0.517241 0
0.206897 0.482759 0
0.206897 0.448276 0
0.206897 0.413793 0
0.206897 0.37931 0
0.206897 0.344828 0
0.206897 0.310345 0
0.206897 0.275862 0
0.206897 0.241379 0
0.206897 0.206897 0
0.206897 0.172414 0
0.206897 0.137931 0
0.206897 0.103448 0
0.206897 0.0689655 0
0.206897 0.0344828 0
0.241379 0.965517 0
0.241379 0.931034 0
0.241379 0.896552 0
0.241379 0.862069 0
0.241379 0.827586 0
0.241379 0.793103 0
0.241379 0.758621 0
0.241379 0.724138 0
0.241379 0.689655 0
0.241379 0.655172 0
0.241379 0.62069 0
0.241379 0.586207 0
0.241379 0.551724 0
0.241379 0.517241 0
0.241379 0.482759 0
0.241379 0.448276 0
0.241379 0.413793 0
0.241379 0.37931 0
0.241379 0.344828 0
0.241379 0.310345 0
0.241379 0.275862 0
0.241379 0.241379 0
0.241379 0.206897 0
0.241379 0.172414 0
0.241379 0.137931 0
0.241379 0.103448 0
0.241379 0.0689655 0
0.241379 0.0344828 0
0.275862 0.965517 0
0.275862 0.931034 0
0.275862 0.896552 0
0.275862 0.862069 0
0.275862 0.827586 0
0.275862 0.793103 0
0.275862 0.758621 0
0.275862 0.724138 0
0.275862 0.689655 0
0.275862 0.655172 0
0.275862 0.62069 0
0.275862 0.586207 0
0.275862 0.551724 0
0.275862 0.517241 0
0.275862 0.482759 0
0.275862 0.448276 0
0.275862 0.413793 0
0.275862 0.37931 0
0.275862 0.344828 0
0.275862 0.310345 0
0.275862 0.275862 0
0.275862 0.241379 0
0.275862 0.206897 0
0.275862 0.172414 0
0.275862 0.137931 0
0.275862 0.103448 0
0.275862 0.0689655 0
0.275862 0.0344828 0
0.310345 0.965517 0
0.310345 0.931034 0
0.310345 0.896552 0
0.310345 0.862069 0
0.310345 0.827586 0
0.310345 0.793103 0
0.310345 0.758621 0
0.310345 0.724138 0
0.310345 0.689655 0
0.310345 0.655172 0
0.310345 0.62069 0
0.310345 0.586207 0
0.310345 0.551724 0
0.310345 0.517241 0
0.310345 0.482759 0
0.310345 0.448276 0
0.310345 0.413793 0
0.310345 0.37931 0
0.310345 0.344828 0
0.310345 0.310345 0
0.310345 0.275862 0
0.310345 0.241379 0
0.310345 0.206897 0
0.310345 0.172414 0
0.310345 0.137931 0
0.310345 0.103448 0
0.310345 0.0689655 0
0.310345 0.0344828 0
0.344828 0.965517 0
0.344828 0.931034 0
0.344828 0.896552 0
0.344828 0.862069 0
0.344828 0.827586 0
0.344828 0.793103 0
0.344828 0.758621 0
0.344828 0.724138 0
0.344828 0.689655 0
0.344828 0.655172 0
0.344828 0.62069 0
0.344828 0.586207 0
0.344828 0.551724 0
0.344828 0.517241 0
0.344828 0.482759 0
0.344828 0.448276 0
0.344828 0.413793 0
0.344828 0.37931 0
0.344828 0.344828 0
0.344828 0.310345 0
0.344828 0.275862 0
0.344828 0.241379 0
0.344828 0.206897 0
0.344828 0.172414 0
0.344828 0.137931 0
0.344828 0.103448 0
0.344828 0.0689655 0
0.344828 0.0344828 0
0.37931 0.965517 0
0.37931 0.931034 0
0.37931 0.896552 0
0.37931 0.862069 0
0.37931 0.827586 0
0.37931 0.793103 0
0.37931 0.758621 0
0.37931 0.724138 0
0.37931 0.689655 0
0.37931 0.655172 0
0.37931 0.62069 0
0.37931 0.586207 0
0.37931 0.551724 0
0.37931 0.517241 0
0.37931 0.482759 0
0.37931 0.448276 0
0.37931 0.413793 0
0.37931 0.37931 0
0.37931 0.344828 0
0.37931 0.310345 0
0.37931 0.275862 0
0.37931 0.241379 0
0.37931 0.206897 0
0.37931 0.172414 0
0.37931 0.137931 0
0.37931 0.103448 0
0.37931 0.0689655 0
0.37931 0.0344828 0
0.413793 0.965517 0
0.413793 0.931034 0
0.413793 0.896552 0
0.413793 0.862069 0
0.413793 0.827586 0
0.413793 0.793103 0
0.413793 0.758621 0
0.413793 0.724138 0
0.413793 0.689655 0
0.413793 0.655172 0
0.413793 0.62069 0
0.413793 0.586207 0
0.413793 0.551724 0
0.413793 0.517241 0
0.413793 0.482759 0
0.413793 0.448276 0
0.413793 0.413793 0
0.413793 0.37931 0
0.413793 0.344828 0
0.413793 0.310345 0
0.413793 0.275862 0
0.413793 0.241379 0
0.413793 0.206897 0
0.413793 0.172414 0
0.413793 0.137931 0
0.413793 0.103448 0
0.413793 0.0689655 0
0.413793 0.0344828 0
0.448276 0.965517 0
0.448276 0.931034 0
0.448276 0.896552 0
0.448276 0.862069 0
0.448276 0.827586 0
0.448276 0.793103 0
0.448276 0.758621 0
0.448276 0.724138 0
0.448276 0.689655 0
0.448276 0.655172 0
0.448276 0.62069 0
0.448276 0.586207 0
0.448276 0.551724 0
0.448276 0.517241 0
0.448276 0.482759 0
0.448276 0.448276 0
0.448276 0.413793 0
0.448276 0.37931 0
0.448276 0.344828 0
0.448276 0.310345 0
0.448276 0.275862 0
0.448276 0.241379 0
0.448276 0.206897 0
0.448276 0.172414 0
0.448276 0.137931 0
0.448276 0.103448 0
0.448276 0.0689655 0
0.448276 0.0344828 0
0.482759 0.965517 0
0.482759 0.931034 0
0.482759 0.896552 0
0.482759 0.862069 0
0.482759 0.827586 0
0.482759 0.793103 0
0.482759 0.758621 0
0.482759 0.724138 0
0.482759 0.689655 0
0.482759 0.655172 0
0.482759 0.62069 0
0.482759 0.586207 0
0.482759 0.551724 0
0.482759 0.517241 0
0.482759 0.482759 0
0.482759 0.448276 0
0.482759 0.413793 0
0.482759 0.37931 0
0.482759 0.344828 0
0.482759 0.310345 0
0.482759 0.275862 0
0.482759 0.241379 0
0.482759 0.206897 0
0.482759 0.172414 0
0.482759 0.137931 0
0.482759 0.103448 0
0.482759 0.0689655 0
0.482759 0.0344828 0
0.517241 0.965517 0
0.517241 0.931034 0
0.517241 0.896552 0
0.517241 0.862069 0
0.517241 0.827586 0
0.517241 0.793103 0
0.517241 0.758621 0
0.517241 0.724138 0
0.517241 0.689655 0
0.517241 0.655172 0
0.517241 0.62069 0
0.517241 0.586207 0
0.517241 0.551724 0
0.517241 0.517241 0
0.517241 0.482759 0
0.517241 0.448276 0
0.517241 0.413793 0
0.517241 0.37931 0
0.517241 0.344828 0
0.517241 0.310345 0
0.517241 0.275862 0
0.517241 0.241379 0
0.517241 0.206897 0
0.517241 0.172414 0
0.517241 0.137931 0
0.517241 0.103448 0
[...]
CELL_DATA 841
VECTORS velocity double
0.260268 0.0840059 0.0
0.00440461 0.175353 0.0
-0.0221944 0.135402 0.0
-0.0173611 0.0944597 0.0
-0.0112493 0.0676206 0.0
-0.0071232 0.0503169 0.0
-0.00460231 0.0388041 0.0
-0.00307886 0.0308273 0.0
-0.00213771 0.0250539 0.0
-0.00153315 0.0207027 0.0
-0.00112577 0.0173103 0.0
-0.000836875 0.0145929 0.0
-0.000621424 0.0123692 0.0
-0.000452897 0.0105182 0.0
-0.000315207 0.00895531 0.0
-0.000198403 0.00761959 0.0
-9.64318e-05 0.00646623 0.0
-6.0065e-06 0.00546249 0.0
7.41015e-05 0.00458554 0.0
0.000143435 0.00382106 0.0
0.000199681 0.00316128 0.0
0.000238271 0.00260005 0.0
0.00025377 0.00212534 0.0
0.000243627 0.00171627 0.0
0.000209643 0.00134912 0.0
0.000155102 0.0010055 0.0
7.98017e-05 0.000673137 0.0
-2.71816e-05 0.000391466 0.0
-0.000155404 3.6675e-05 0.0
0.263337 0.0438165 0.0
-0.0221508 0.138256 0.0
-0.0556144 0.135857 0.0
-0.0438549 0.116202 0.0
-0.030359 0.0958847 0.0
-0.0207431 0.0787501 0.0
-0.0144372 0.0652246 0.0
-0.010335 0.0546643 0.0
-0.00761641 0.0463093 0.0
-0.00575803 0.039555 0.0
-0.00443999 0.0339672 0.0
-0.00346868 0.0292396 0.0
-0.00272576 0.0251534 0.0
-0.00213743 0.0215496 0.0
-0.00165656 0.0183122 0.0
-0.00125251 0.0153586 0.0
-0.000905517 0.0126341 0.0
-0.000603471 0.0101101 0.0
-0.000340126 0.0077823 0.0
-0.000114406 0.00566927 0.0
6.8898e-05 0.00380796 0.0
0.000198457 0.00223993 0.0
0.000261474 0.000990242 0.0
0.000254154 5.72161e-05 0.0
0.000184971 -0.000575494 0.0
6.63397e-05 -0.000924144 0.0
-9.86868e-05 -0.00100607 0.0
-0.000339156 -0.000762812 0.0
-0.000550547 -0.00042844 0.0
0.31794 0.0147278 0.0
0.0173117 0.0757574 0.0
-0.0549467 0.0958048 0.0
-0.0552856 0.0954347 0.0
-0.0433332 0.0872727 0.0
-0.0323817 0.0769577 0.0
-0.0242125 0.067091 0.0
-0.018385 0.0584327 0.0
-0.0142333 0.0509968 0.0
-0.0112295 0.0445974 0.0
-0.00900579 0.0390288 0.0
-0.00731655 0.0341099 0.0
-0.00599864 0.0296903 0.0
-0.00494286 0.0256494 0.0
-0.00407481 0.021894 0.0
-0.00334294 0.0183582 0.0
-0.00271143 0.0150031 0.0
-0.00215604 0.011818 0.0
-0.00166203 0.00882042 0.0
-0.00122412 0.00605688 0.0
-0.000848363 0.00359775 0.0
-0.000552076 0.00151841 0.0
-0.000353547 -0.000131351 0.0
-0.000255938 -0.00133847 0.0
-0.000243878 -0.00210595 0.0
-0.000294532 -0.00243397 0.0
-0.000395365 -0.00232447 0.0
-0.000577972 -0.00168868 0.0
-0.000708975 -0.000773832 0.0
0.348449 0.00487287 0.0
0.0606563 0.0359047 0.0
-0.0381597 0.0630206 0.0
-0.0546897 0.0715483 0.0
-0.0486661 0.0711888 0.0
-0.0392595 0.0665018 0.0
-0.0310127 0.0604138 0.0
-0.0245646 0.0542623 0.0
-0.0196664 0.0484931 0.0
-0.0159477 0.0432028 0.0
-0.0130926 0.0383678 0.0
-0.0108637 0.0339242 0.0
-0.00908982 0.0297969 0.0
-0.00764878 0.0259144 0.0
-0.006453 0.0222168 0.0
-0.00543937 0.0186619 0.0
-0.00456271 0.0152296 0.0
-0.0037918 0.0119248 0.0
-0.00310759 0.00877976 0.0
-0.00250348 0.00585642 0.0
-0.00198685 0.00324226 0.0
-0.00157627 0.00102629 0.0
-0.00128638 -0.000737088 0.0
-0.00111149 -0.00203362 0.0
-0.00102432 -0.00285835 0.0
-0.000985499 -0.00319522 0.0
-0.00095927 -0.00302414 0.0
-0.000949075 -0.00221372 0.0
-0.000810281 -0.00098223 0.0
0.36096 0.00169429 0.0
0.0888663 0.0169763 0.0
-0.0178104 0.041136 0.0
-0.0477271 0.0525742 0.0
-0.0486066 0.0562074 0.0
-0.0420615 0.0550982 0.0
-0.0348099 0.0517963 0.0
-0.0285369 0.0477205 0.0
-0.0234633 0.0434829 0.0
-0.0194336 0.0393237 0.0
-0.0162313 0.0353287 0.0
-0.0136633 0.0315135 0.0
-0.0115766 0.0278605 0.0
-0.00985454 0.0243387 0.0
-0.00840983 0.0209175 0.0
-0.0071778 0.0175764 0.0
-0.00611168 0.0143113 0.0
-0.0051797 0.0111389 0.0
-0.00436378 0.00810102 0.0
-0.00365965 0.00526794 0.0
-0.00307658 0.00273392 0.0
-0.00263006 0.000588133 0.0
-0.00232361 -0.00112265 0.0
-0.00213603 -0.00239023 0.0
-0.00202241 -0.00320638 0.0
-0.00191823 -0.00354337 0.0
-0.00174845 -0.00336125 0.0
-0.00145796 -0.0024879 0.0
-0.000894727 -0.00109781 0.0
0.366938 0.000653779 0.0
0.106127 0.00857216 0.0
0.000997113 0.0269053 0.0
-0.0384201 0.0386442 0.0
-0.0456276 0.0439916 0.0
-0.0422685 0.0449484 0.0
-0.0364857 0.0435096 0.0
-0.0308196 0.0409579 0.0
-0.0259201 0.0379306 0.0
-0.021848 0.0347261 0.0
-0.0184989 0.0314859 0.0
-0.0157397 0.0282728 0.0
-0.0134494 0.025107 0.0
-0.0115288 0.0219868 0.0
-0.00990017 0.0189044 0.0
-0.00850487 0.0158559 0.0
-0.00730053 0.01285 0.0
-0.00625947 0.00991273 0.0
-0.00536803 0.00709235 0.0
-0.00462628 0.00446375 0.0
-0.00404513 0.00212153 0.0
-0.00363388 0.000146448 0.0
-0.0033806 -0.00142797 0.0
-0.00324478 -0.00260078 0.0
-0.00315901 -0.00336221 0.0
-0.0030253 -0.00367752 0.0
-0.002715 -0.00349277 0.0
-0.00208999 -0.0026057 0.0
-0.000987531 -0.00114994 0.0
0.370159 0.000258521 0.0
0.116909 0.00463514 0.0
0.0162615 0.0174867 0.0
-0.0288072 0.0284947 0.0
-0.041234 0.0343587 0.0
-0.0409356 0.0364414 0.0
-0.0367662 0.0361969 0.0
-0.0319046 0.0347097 0.0
-0.0273662 0.0325846 0.0
-0.0234093 0.0301333 0.0
-0.0200398 0.0275208 0.0
-0.0171881 0.0248336 0.0
-0.0147715 0.0221137 0.0
-0.0127145 0.0193788 0.0
-0.0109546 0.0166365 0.0
-0.00944386 0.0138957 0.0
-0.00814782 0.0111747 0.0
-0.00704549 0.00850632 0.0
-0.00612905 0.0059441 0.0
-0.00540316 0.00356537 0.0
-0.00487911 0.00146039 0.0
-0.00455714 -0.000303726 0.0
-0.00440807 -0.00170762 0.0
-0.00437129 -0.00275496 0.0
-0.00435426 -0.00343371 0.0
-0.00421997 -0.00370538 0.0
-0.00377725 -0.0035083 0.0
-0.00279086 -0.00262416 0.0
-0.00108606 -0.00115808 0.0
0.372011 9.76019e-05 0.0
0.123806 0.00267677 0.0
0.0277509 0.0114728 0.0
-0.0197394 0.0211421 0.0
-0.0362304 0.0268744 0.0
-0.0387053 0.0294789 0.0
-0.0361346 0.0299478 0.0
-0.0321431 0.0291681 0.0
-0.0280502 0.0276891 0.0
-0.024291 0.0258125 0.0
-0.0209743 0.0237055 0.0
-0.0180935 0.0214628 0.0
-0.0156053 0.0191364 0.0
-0.0134603 0.0167542 0.0
-0.0116141 0.0143339 0.0
-0.0100315 0.011893 0.0
-0.0086875 0.00945649 0.0
-0.00756854 0.00706275 0.0
-0.00667261 0.0047691 0.0
-0.006008 0.00265349 0.0
-0.00558364 0.000797803 0.0
-0.00538771 -0.00074739 0.0
-0.00537385 -0.00197422 0.0
-0.00546302 -0.00288641 0.0
-0.00553705 -0.00346816 0.0
-0.00541801 -0.00367914 0.0
-0.00484989 -0.00345519 0.0
-0.00349756 -0.00257621 0.0
-0.00117791 -0.00113436 0.0
0.3731 2.83065e-05 0.0
0.128382 0.0016384 0.0
0.0363071 0.00775333 0.0
-0.0115557 0.0158638 0.0
-0.0311146 0.0211107 0.0
-0.0360094 0.0238262 0.0
-0.0349304 0.0246555 0.0
-0.0317914 0.0243117 0.0
-0.0281608 0.0232783 0.0
-0.0246299 0.0218317 0.0
-0.0214022 0.0201284 0.0
-0.0185298 0.0182598 0.0
-0.0160081 0.0162788 0.0
-0.0138139 0.0142174 0.0
-0.011921 0.0120983 0.0
-0.0103069 0.00994417 0.0
-0.00895618 0.00778448 0.0
-0.00786194 0.00566156 0.0
-0.00702698 0.00363551 0.0
-0.00646102 0.00178217 0.0
-0.00616655 0.000170958 0.0
-0.00611744 -0.00116424 0.0
-0.00625226 -0.00222176 0.0
-0.00647616 -0.0030007 0.0
-0.00664656 -0.00348039 0.0
-0.00654626 -0.0036197 0.0
-0.00585816 -0.00335604 0.0
-0.00415417 -0.00248018 0.0
-0.0012507 -0.00108646 0.0
0.373729 -5.45595e-06 0.0
0.131514 0.00104228 0.0
0.0427111 0.00540722 0.0
-0.00441497 0.0120476 0.0
-0.026227 0.0166305 0.0
-0.033157 0.0191848 0.0
-0.0334007 0.0201272 0.0
-0.0310396 0.0200252 0.0
-0.0278415 0.0192919 0.0
-0.0245336 0.0181689 0.0
-0.0214042 0.0167936 0.0
-0.0185596 0.015246 0.0
-0.0160309 0.0135744 0.0
-0.013819 0.0118095 0.0
-0.0119144 0.00997541 0.0
-0.0103062 0.00809723 0.0
-0.00898669 0.00620718 0.0
-0.00795445 0.00435024 0.0
-0.00721515 0.00258756 0.0
-0.00677611 0.00098893 0.0
-0.00662886 -0.000391861 0.0
-0.00673291 -0.00153437 0.0
-0.00701552 -0.00243672 0.0
-0.00736876 -0.00309007 0.0
-0.00762818 -0.00346843 0.0
-0.00754192 -0.0035306 0.0
-0.0067403 -0.00321883 0.0
-0.00471627 -0.00234535 0.0
-0.00129569 -0.00101926 0.0
0.374056 -2.12704e-05 0.0
0.133676 0.000680781 0.0
0.0475061 0.00386671 0.0
0.00162059 0.00918342 0.0
-0.0217811 0.0130127 0.0
-0.0303556 0.0152351 0.0
-0.0317151 0.0161337 0.0
-0.0300201 0.0161503 0.0
-0.027194 0.0156253 0.0
-0.02408 0.0147594 0.0
-0.0210415 0.0136652 0.0
-0.0182328 0.0124069 0.0
-0.0157161 0.0110237 0.0
-0.0135132 0.00954211 0.0
-0.0116284 0.00798498 0.0
-0.0100599 0.00637789 0.0
-0.00880589 0.00475449 0.0
-0.00786804 0.00316114 0.0
-0.00725169 0.00165707 0.0
-0.00695661 0.000301266 0.0
-0.00696038 -0.000868592 0.0
-0.00721121 -0.00183906 0.0
-0.00762932 -0.00260223 0.0
-0.00809638 -0.00313992 0.0
-0.0084297 -0.00342113 0.0
-0.00834956 -0.00340538 0.0
-0.00744542 -0.00304273 0.0
-0.00515013 -0.00217504 0.0
-0.00130852 -0.000935557 0.0
0.374172 -2.57775e-05 0.0
0.135126 0.000447529 0.0
0.0510201 0.00276626 0.0
0.00646828 0.00682916 0.0
-0.017923 0.00987472 0.0
-0.0277403 0.0116705 0.0
-0.0299811 0.0124397 0.0
-0.0288146 0.0125133 0.0
-0.0262808 0.0121547 0.0
-0.0233188 0.0115187 0.0
-0.0203557 0.0106888 0.0
-0.0175861 0.00971063 0.0
-0.0150977 0.00861194 0.0
-0.0129285 0.00741332 0.0
-0.0110931 0.00613497 0.0
-0.00959558 0.00480188 0.0
-0.00843714 0.00344813 0.0
-0.00761952 0.0021194 0.0
-0.00714257 0.000868309 0.0
-0.00699383 -0.00026045 0.0
-0.00713849 -0.00124119 0.0
-0.00751884 -0.0020598 0.0
-0.0080515 -0.00269888 0.0
-0.00861025 -0.00313125 0.0
-0.00899884 -0.00332176 0.0
-0.00891807 -0.00323165 0.0
-0.00793053 -0.00282138 0.0
-0.00543049 -0.00196862 0.0
-0.00128879 -0.000836582 0.0
0.374137 -2.23085e-05 0.0
0.135996 0.000277546 0.0
0.0534215 0.00186292 0.0
0.010054 0.00469012 0.0
-0.0147902 0.0068998 0.0
-0.0254259 0.00821359 0.0
-0.028278 0.00881904 0.0
-0.0274775 0.00893923 0.0
-0.0251428 0.00875082 0.0
-0.0222853 0.00835477 0.0
-0.0193806 0.00780148 0.0
-0.0166537 0.00711658 0.0
-0.0142107 0.00631595 0.0
-0.0121001 0.00541371 0.0
-0.0103423 0.00442709 0.0
-0.00894349 0.00337987 0.0
-0.00790411 0.00230497 0.0
-0.00722091 0.0012435 0.0
-0.00688342 0.000237048 0.0
-0.00686682 -0.000682635 0.0
-0.00712956 -0.00149429 0.0
-0.00761313 -0.00217753 0.0
-0.00823272 -0.00270504 0.0
-0.00885716 -0.00304203 0.0
-0.00928233 -0.00315012 0.0
-0.00919919 -0.00299342 0.0
-0.00815855 -0.00254507 0.0
-0.00553873 -0.00172284 0.0
-0.00123941 -0.000722345 0.0
0.373992 -1.15908e-05 0.0
0.136344 0.000131593 0.0
0.0547576 0.00099758 0.0
0.0122996 0.00256658 0.0
-0.0125793 0.0038262 0.0
-0.0235848 0.0046172 0.0
-0.0267368 0.00506424 0.0
-0.0261131 0.0052643 0.0
-0.0238717 0.00528855 0.0
-0.0210658 0.00517366 0.0
-0.0182003 0.00493411 0.0
-0.0155174 0.00457555 0.0
-0.0131332 0.00410281 0.0
-0.0111006 0.00352414 0.0
-0.00943988 0.00285369 0.0
-0.00815484 0.00211285 0.0
-0.00724019 0.00133025 0.0
-0.00668363 0.000538452 0.0
-0.006464 -0.000232423 0.0
-0.00654909 -0.000957659 0.0
-0.00689627 -0.00161376 0.0
-0.0074488 -0.00217236 0.0
-0.00812224 -0.00259764 0.0
-0.00878436 -0.0028485 0.0
-0.00922985 -0.00288428 0.0
-0.00915016 -0.00267306 0.0
-0.00809955 -0.00220249 0.0
-0.00546289 -0.00143315 0.0
-0.00116607 -0.000592013 0.0
0.373737 3.80432e-06 0.0
0.136079 -1.27889e-05 0.0
0.0548591 8.83485e-05 0.0
0.0129713 0.000319604 0.0
-0.0115464 0.000515053 0.0
-0.0224004 0.000745816 0.0
-0.0254956 0.00105028 0.0
-0.0248511 0.00137529 0.0
-0.0226047 0.00166586 0.0
-0.0198071 0.00188392 0.0
-0.016966 0.00200548 0.0
-0.014327 0.00201693 0.0
-0.012007 0.00191307 0.0
-0.010057 0.00169639 0.0
-0.00849282 0.00137676 0.0
-0.00731137 0.000970644 0.0
-0.00649895 0.000499054 0.0
-0.00603466 -1.54727e-05 0.0
-0.00589105 -0.000551201 0.0
-0.0060324 -0.00108485 0.0
-0.0064179 -0.00158819 0.0
-0.00699528 -0.00202576 0.0
-0.00768322 -0.00235465 0.0
-0.00835307 -0.0025283 0.0
-0.00880554 -0.00250429 0.0
-0.0087427 -0.00225529 0.0
-0.00773678 -0.00178444 0.0
-0.00520033 -0.0010962 0.0
-0.00107716 -0.000444723 0.0
0.373366 1.96414e-05 0.0
0.13516 -0.000157154 0.0
0.0536503 -0.000838082 0.0
0.0119369 -0.00197114 0.0
-0.0118651 -0.00285157 0.0
-0.0220156 -0.00318718 0.0
-0.0246531 -0.00303068 0.0
-0.023768 -0.00258344 0.0
-0.0214217 -0.0020237 0.0
-0.0186071 -0.00146324 0.0
-0.0157971 -0.000964751 0.0
-0.0132167 -0.00056208 0.0
-0.0109696 -0.000272086 0.0
-0.00909771 -0.000100347 0.0
-0.00760897 -4.40499e-05 0.0
-0.00649311 -9.42441e-05 0.0
-0.00572995 -0.000238272 0.0
-0.00529423 -0.000461738 0.0
-0.00515809 -0.000748326 0.0
-0.0052913 -0.00107675 0.0
-0.00565846 -0.00141715 0.0
-0.00621098 -0.00172931 0.0
-0.00687335 -0.00196426 0.0
-0.00752544 -0.00207016 0.0
-0.00798054 -0.00200233 0.0
-0.0079599 -0.00173724 0.0
-0.00706572 -0.0012925 0.0
-0.00475641 -0.000715848 0.0
-0.0009813 -0.000281777 0.0
0.37294 3.51933e-05 0.0
0.133753 -0.000306837 0.0
0.0513147 -0.00178446 0.0
0.00933447 -0.00426232 0.0
-0.0135279 -0.00610763 0.0
-0.0226255 -0.00694538 0.0
-0.0245534 -0.00691992 0.0
-0.0232769 -0.00636575 0.0
-0.0207438 -0.00556298 0.0
-0.0178581 -0.00468466 0.0
-0.0150375 -0.00382831 0.0
-0.0124748 -0.00304837 0.0
-0.010255 -0.00237493 0.0
-0.00840817 -0.00182329 0.0
-0.00693516 -0.00139906 0.0
-0.00582068 -0.00110129 0.0
-0.00504129 -0.000924829 0.0
-0.00457041 -0.000861336 0.0
-0.00438106 -0.000898229 0.0
-0.00444574 -0.00101564 0.0
-0.00473298 -0.00118319 0.0
-0.00519972 -0.00135868 0.0
-0.00577964 -0.00149047 0.0
-0.00636744 -0.00152469 0.0
-0.00679877 -0.00141695 0.0
-0.00682698 -0.00114846 0.0
-0.00609985 -0.000749605 0.0
-0.00414001 -0.000308251 0.0
-0.000881753 -0.000108337 0.0
0.372434 4.99399e-05 0.0
0.131825 -0.000495398 0.0
0.0478448 -0.00286609 0.0
0.00527562 -0.00668677 0.0
-0.0162952 -0.00934457 0.0
-0.0240127 -0.0105737 0.0
-0.0250242 -0.0106225 0.0
-0.0232381 -0.00995137 0.0
-0.0204518 -0.0089209 0.0
-0.0174548 -0.00774956 0.0
-0.0145935 -0.0065621 0.0
-0.0120195 -0.00543073 0.0
-0.00979403 -0.00439808 0.0
-0.00793445 -0.00348906 0.0
-0.00643469 -0.0027174 0.0
-0.00527638 -0.00208947 0.0
-0.00443522 -0.00160644 0.0
-0.00388506 -0.00126486 0.0
-0.00360016 -0.00105531 0.0
-0.00355489 -0.000959677 0.0
-0.00372069 -0.000948241 0.0
-0.00406002 -0.000978678 0.0
-0.00451719 -0.000998913 0.0
-0.00500523 -0.000955437 0.0
-0.00538816 -0.000806492 0.0
-0.0054607 -0.000539177 0.0
-0.0049294 -0.000195129 0.0
-0.00340003 0.000101186 0.0
-0.000784975 6.72021e-05 0.0
0.37181 5.86905e-05 0.0
0.129285 -0.000785695 0.0
0.0431578 -0.0042724 0.0
-0.000106984 -0.00942768 0.0
-0.0199147 -0.0127578 0.0
-0.0259478 -0.0142387 0.0
-0.0258805 -0.0142714 0.0
-0.0234977 -0.0134409 0.0
-0.0204097 -0.0121721 0.0
-0.0172727 -0.0107147 0.0
-0.0143517 -0.00921215 0.0
-0.0117505 -0.00774981 0.0
-0.00950356 -0.0063801 0.0
-0.00761328 -0.00513574 0.0
-0.00606646 -0.00403711 0.0
-0.00484197 -0.00309645 0.0
-0.00391532 -0.00232003 0.0
-0.00326131 -0.00170843 0.0
-0.00285548 -0.00125521 0.0
-0.00267376 -0.000944371 0.0
-0.00269025 -0.000747807 0.0
-0.002873 -0.000624322 0.0
-0.00317776 -0.000522997 0.0
-0.00353784 -0.000392821 0.0
-0.00384906 -0.000197165 0.0
-0.00395352 6.90068e-05 0.0
-0.00362718 0.000353554 0.0
-0.00257597 0.000499925 0.0
-0.000690314 0.00023961 0.0
0.371001 5.22742e-05 0.0
0.125944 -0.00127434 0.0
0.03708 -0.0062721 0.0
-0.00661098 -0.0127515 0.0
-0.0241309 -0.0165994 0.0
-0.0282087 -0.0181556 0.0
-0.0269436 -0.0180465 0.0
-0.0239085 -0.0169817 0.0
-0.0204896 -0.0154348 0.0
-0.0171967 -0.0136744 0.0
-0.0142076 -0.0118543 0.0
-0.0115752 -0.0100675 0.0
-0.00930456 -0.00837243 0.0
-0.00738187 -0.00680663 0.0
-0.00578566 -0.00539485 0.0
-0.0044915 -0.00415335 0.0
-0.00347431 -0.00309203 0.0
-0.00270965 -0.00221463 0.0
-0.00217409 -0.00151736 0.0
-0.00184498 -0.000986555 0.0
-0.00169897 -0.000596349 0.0
-0.00170958 -0.000307656 0.0
-0.00184397 -7.2149e-05 0.0
-0.00205615 0.000156121 0.0
-0.00227514 0.000405323 0.0
-0.00239388 0.000670318 0.0
-0.00226536 0.000889644 0.0
-0.00170903 0.000881062 0.0
-0.00059745 0.000404853 0.0
0.369882 1.10075e-05 0.0
0.12145 -0.00212447 0.0
0.0293031 -0.00925259 0.0
-0.0140176 -0.0170139 0.0
-0.0286599 -0.0211665 0.0
-0.0305501 -0.0225661 0.0
-0.0280148 -0.0221439 0.0
-0.0243068 -0.0207332 0.0
-0.0205524 -0.0188381 0.0
-0.0171053 -0.0167326 0.0
-0.0140537 -0.0145721 0.0
-0.0113988 -0.0124508 0.0
-0.00911538 -0.0104284 0.0
-0.00717224 -0.00854365 0.0
-0.00553876 -0.00682285 0.0
-0.00418634 -0.00528405 0.0
-0.00308869 -0.00393917 0.0
-0.00222156 -0.00279411 0.0
-0.00156229 -0.00184724 0.0
-0.00108942 -0.00108723 0.0
-0.000782206 -0.000491175 0.0
-0.000619429 -2.34857e-05 0.0
-0.000578933 0.000359567 0.0
-0.000634557 0.000696169 0.0
-0.000748393 0.001003 0.0
-0.000865551 0.001263 0.0
-0.000919183 0.00140754 0.0
-0.000847926 0.00123743 0.0
-0.000510949 0.000558334 0.0
0.368224 -0.000116229 0.0
0.115183 -0.00365515 0.0
0.0193701 -0.0137923 0.0
-0.0220787 -0.0226084 0.0
-0.0331578 -0.0267678 0.0
-0.0326854 -0.0277119 0.0
-0.028868 -0.0267557 0.0
-0.0245102 -0.0248498 0.0
-0.0204463 -0.0225065 0.0
-0.0168694 -0.0199896 0.0
-0.0137789 -0.017446 0.0
-0.011125 -0.0149639 0.0
-0.00885264 -0.0125983 0.0
-0.0069132 -0.0103852 0.0
-0.00526637 -0.00834886 0.0
-0.00387879 -0.00650682 0.0
-0.0027224 -0.0048713 0.0
-0.00177268 -0.00344929 0.0
-0.0010075 -0.00224088 0.0
-0.000406708 -0.00123715 0.0
4.75043e-05 -0.00041929 0.0
0.000370807 0.000242285 0.0
0.000575267 0.000783876 0.0
0.000668742 0.0012338 0.0
0.000658078 0.00159586 0.0
0.000548446 0.0018409 0.0
0.000329874 0.00189638 0.0
-5.07648e-05 0.00155758 0.0
-0.000440892 0.000693696 0.0
0.365623 -0.00044784 0.0
0.10611 -0.006486 0.0
0.00673099 -0.0206727 0.0
-0.0304384 -0.0299653 0.0
-0.0372099 -0.0336966 0.0
-0.0342884 -0.0338105 0.0
-0.029251 -0.0320524 0.0
-0.0243178 -0.0294669 0.0
-0.0200074 -0.0265473 0.0
-0.0163524 -0.0235306 0.0
-0.0132674 -0.0205436 0.0
-0.0106545 -0.0176597 0.0
-0.00843041 -0.014923 0.0
-0.0065302 -0.0123612 0.0
-0.00490414 -0.00999325 0.0
-0.00351408 -0.00783338 0.0
-0.00232988 -0.00589239 0.0
-0.00132661 -0.00417741 0.0
-0.000482791 -0.00268998 0.0
0.000219713 -0.0014242 0.0
0.000794538 -0.000367224 0.0
0.00125064 0.000501071 0.0
0.00159 0.00120636 0.0
0.00180446 0.00176594 0.0
0.00187466 0.00217147 0.0
0.00176349 0.00238398 0.0
0.00139521 0.00233278 0.0
0.000618414 0.00182179 0.0
-0.000400087 0.000801827 0.0
0.36138 -0.00124083 0.0
0.0927289 -0.0117074 0.0
-0.00870795 -0.0303174 0.0
-0.0385746 -0.0395404 0.0
-0.0403445 -0.0422294 0.0
-0.0349969 -0.0410448 0.0
-0.0288816 -0.038164 0.0
-0.023505 -0.0346755 0.0
-0.0190543 -0.0310227 0.0
-0.015406 -0.027397 0.0
-0.0123955 -0.0238916 0.0
-0.0098821 -0.0205545 0.0
-0.00775803 -0.0174105 0.0
-0.00594417 -0.0144735 0.0
-0.00438294 -0.011753 0.0
-0.00303211 -0.00925694 0.0
-0.00185975 -0.00699315 0.0
-0.000840703 -0.00496808 0.0
4.51553e-05 -0.00318469 0.0
0.000812112 -0.00164114 0.0
0.00146743 -0.0003332 0.0
0.00201167 0.000746252 0.0
0.00243688 0.00160966 0.0
0.00272247 0.00226342 0.0
0.00283062 0.00269028 0.0
0.00269425 0.00284727 0.0
0.00219044 0.00267412 0.0
0.00109707 0.00199946 0.0
-0.000399157 0.000870442 0.0
0.353915 -0.00321292 0.0
0.0727334 -0.0215861 0.0
-0.025983 -0.0437213 0.0
-0.0455711 -0.0520556 0.0
-0.0419131 -0.0526921 0.0
-0.0343387 -0.0495365 0.0
-0.0274013 -0.0451086 0.0
-0.0217944 -0.0404351 0.0
-0.0173697 -0.0358596 0.0
-0.0138573 -0.0314996 0.0
-0.0110231 -0.0273945 0.0
-0.00869172 -0.0235525 0.0
-0.00673723 -0.0199692 0.0
-0.00507103 -0.0166377 0.0
-0.00363071 -0.013553 0.0
-0.00237194 -0.010714 0.0
-0.00126213 -0.00812367 0.0
-0.000276926 -0.00578695 0.0
0.000600602 -0.00370801 0.0
0.00137864 -0.00189011 0.0
0.00205632 -0.000340012 0.0
0.00262506 0.000934341 0.0
0.00306802 0.00193146 0.0
0.00335715 0.00264901 0.0
0.00344623 0.00306695 0.0
0.00325423 0.00314737 0.0
0.00263543 0.00285092 0.0
0.00133341 0.00204615 0.0
-0.000440391 0.000883243 0.0
0.338624 -0.00839062 0.0
0.0423492 -0.040594 0.0
-0.042969 -0.0629756 0.0
-0.0496449 -0.0682774 0.0
-0.0407814 -0.0651538 0.0
-0.0315528 -0.0590284 0.0
-0.0242712 -0.052481 0.0
-0.018794 -0.0462804 0.0
-0.0146627 -0.0405803 0.0
-0.0114856 -0.0353743 0.0
-0.00897933 -0.0306165 0.0
-0.00694837 -0.0262546 0.0
-0.00525997 -0.0222422 0.0
-0.00382393 -0.0185428 0.0
-0.00257861 -0.0151315 0.0
-0.00148135 -0.0119945 0.0
-0.000501789 -0.00912765 0.0
0.000380948 -0.00653238 0.0
0.00117798 -0.0042132 0.0
0.00189042 -0.00217893 0.0
0.0025102 -0.000446921 0.0
0.00302133 0.000961982 0.0
0.00340101 0.00203543 0.0
0.00361977 0.00276737 0.0
0.00363372 0.00314338 0.0
0.00336495 0.00314135 0.0