# vtk DataFile Version 3.0
Malha 2D com triângulos e temperatura
ASCII
DATASET UNSTRUCTURED_GRID

POINTS 1941 double
0 0 0
1 0 0
1 1 0
0 1 0
0.025 0 0
0.05 0 0
0.075 0 0
0.1 0 0
0.125 0 0
0.15 0 0
0.175 0 0
0.2 0 0
0.225 0 0
0.25 0 0
0.275 0 0
0.3 0 0
0.325 0 0
0.35 0 0
0.375 0 0
0.4 0 0
0.425 0 0
0.45 0 0
0.475 0 0
0.5 0 0
0.525 0 0
0.55 0 0
0.575 0 0
0.6 0 0
0.625 0 0
0.65 0 0
0.675 0 0
0.7 0 0
0.725 0 0
0.75 0 0
0.775 0 0
0.8 0 0
0.825 0 0
0.85 0 0
0.875 0 0
0.9 0 0
0.925 0 0
0.95 0 0
0.975 0 0
1 0.025 0
1 0.05 0
1 0.075 0
1 0.1 0
1 0.125 0
1 0.15 0
1 0.175 0
1 0.2 0
1 0.225 0
1 0.25 0
1 0.275 0
1 0.3 0
1 0.325 0
1 0.35 0
1 0.375 0
1 0.4 0
1 0.425 0
1 0.45 0
1 0.475 0
1 0.5 0
1 0.525 0
1 0.55 0
1 0.575 0
1 0.6 0
1 0.625 0
1 0.65 0
1 0.675 0
1 0.7 0
1 0.725 0
1 0.75 0
1 0.775 0
1 0.8 0
1 0.825 0
1 0.85 0
1 0.875 0
1 0.9 0
1 0.925 0
1 0.95 0
1 0.975 0
0.975 1 0
0.95 1 0
0.925 1 0
0.9 1 0
0.875 1 0
0.85 1 0
0.825 1 0
0.8 1 0
0.775 1 0
0.75 1 0
0.725 1 0
0.7 1 0
0.675 1 0
0.65 1 0
0.625 1 0
0.6 1 0
0.575 1 0
0.55 1 0
0.525 1 0
0.5 1 0
0.475 1 0
0.45 1 0
0.425 1 0
0.4 1 0
0.375 1 0
0.35 1 0
0.325 1 0
0.3 1 0
0.275 1 0
0.25 1 0
0.225 1 0
0.2 1 0
0.175 1 0
0.15 1 0
0.125 1 0
0.1 1 0
0.075 1 0
0.05 1 0
0.025 1 0
0 0.975 0
0 0.95 0
0 0.925 0
0 0.9 0
0 0.875 0
0 0.85 0
0 0.825 0
0 0.8 0
0 0.775 0
0 0.75 0
0 0.725 0
0 0.7 0
0 0.675 0
0 0.65 0
0 0.625 0
0 0.6 0
0 0.575 0
0 0.55 0
0 0.525 0
0 0.5 0
0 0.475 0
0 0.45 0
0 0.425 0
0 0.4 0
0 0.375 0
0 0.35 0
0 0.325 0
0 0.3 0
0 0.275 0
0 0.25 0
0 0.225 0
0 0.2 0
0 0.175 0
0 0.15 0
0 0.125 0
0 0.1 0
0 0.075 0
0 0.05 0
0 0.025 0
0.4875 0.978349 0
0.0205045 0.4875 0
0.5125 0.0216506 0
0.978349 0.5125 0
0.97622 0.390442 0
0.387456 0.0222025 0
0.6125 0.978349 0
0.0226804 0.611552 0
0.3625 0.978349 0
0.978349 0.6375 0
0.0211884 0.362313 0
0.636754 0.022913 0
0.0238753 0.738968 0
0.7375 0.978349 0
0.2625 0.0230079 0
0.977931 0.262989 0
0.2625 0.978349 0
0.0220689 0.262989 0
0.975039 0.738118 0
0.7375 0.0220317 0
0.8375 0.978349 0
0.0216506 0.8375 0
0.0223086 0.162879 0
0.8375 0.0230079 0
0.1625 0.978349 0
0.978349 0.8375 0
0.97952 0.162616 0
0.1625 0.0220317 0
0.0211599 0.0875 0
0.913612 0.0219399 0
0.9125 0.978349 0
0.0216506 0.9125 0
0.0866134 0.97622 0
0.977786 0.91273 0
0.975912 0.0912365 0
0.0875578 0.0229588 0
0.4375 0.978349 0
0.025077 0.437134 0
0.976175 0.564707 0
0.559698 0.0226074 0
0.5375 0.978349 0
0.0216506 0.5375 0
0.978349 0.4625 0
0.4625 0.0216506 0
0.3125 0.978349 0
0.2125 0.978349 0
0.978349 0.6875 0
0.979164 0.7875 0
0.0229604 0.309042 0
0.023756 0.216115 0
0.6875 0.0220317 0
0.7875 0.0236323 0
0.3383 0.02246 0
0.978761 0.337882 0
0.0237704 0.658647 0
0.97628 0.215503 0
0.6625 0.978349 0
0.7875 0.978349 0
0.0238382 0.785491 0
0.2125 0.0236323 0
0.0194712 0.0351263 0
0.962292 0.0200345 0
0.961533 0.978908 0
0.0210924 0.961533 0
0.4625 0.978349 0
0.475 0.956699 0
0.5 0.956699 0
0.4875 0.935048 0
0.5125 0.935048 0
0.5 0.913397 0
0.475 0.913397 0
0.4875 0.891747 0
0.5125 0.891747 0
0.5 0.870096 0
0.525 0.870096 0
0.5125 0.848446 0
0.5375 0.848446 0
0.525 0.826795 0
0.5 0.826795 0
0.5125 0.805144 0
0.4875 0.805144 0
0.5 0.783494 0
0.525 0.783494 0
0.5125 0.761843 0
0.4875 0.761843 0
0.5 0.740192 0
0.525 0.740192 0
0.5125 0.718542 0
0.4875 0.718542 0
0.5 0.696891 0
0.475 0.696891 0
0.4875 0.67524 0
0.5125 0.67524 0
0.5 0.65359 0
0.525 0.65359 0
0.5125 0.631939 0
0.4875 0.631939 0
0.5 0.610289 0
0.525 0.610289 0
0.5125 0.588638 0
0.4875 0.588638 0
0.5 0.566987 0
0.475 0.566987 0
0.4875 0.545337 0
0.5125 0.545337 0
0.5 0.523686 0
0.475 0.523686 0
0.525 0.523686 0
0.4875 0.502035 0
0.4625 0.502035 0
0.475 0.480385 0
0.45 0.480385 0
0.4625 0.458734 0
0.4375 0.458734 0
0.425 0.480385 0
0.4125 0.458734 0
0.425 0.437083 0
0.4 0.480385 0
0.4 0.437083 0
0.4125 0.415433 0
0.3875 0.415433 0
0.4 0.393782 0
0.375 0.393782 0
0.3875 0.372132 0
0.4125 0.372132 0
0.3625 0.372132 0
0.35 0.393782 0
0.3375 0.372132 0
0.4 0.350481 0
0.425 0.350481 0
0.325 0.393782 0
0.3125 0.372132 0
0.4125 0.32883 0
0.4375 0.32883 0
0.3 0.393782 0
0.425 0.30718 0
0.45 0.30718 0
0.2875 0.372132 0
0.3 0.350481 0
0.275 0.350481 0
0.2875 0.32883 0
0.275 0.393782 0
0.4375 0.285529 0
0.4625 0.285529 0
0.475 0.30718 0
0.4875 0.285529 0
0.5 0.30718 0
0.5125 0.285529 0
0.525 0.30718 0
0.5375 0.285529 0
0.55 0.30718 0
0.5625 0.285529 0
0.575 0.30718 0
0.5875 0.285529 0
0.6 0.30718 0
0.6125 0.285529 0
0.625 0.30718 0
0.6375 0.285529 0
0.65 0.30718 0
0.6625 0.285529 0
0.675 0.30718 0
0.6875 0.285529 0
0.7 0.30718 0
0.6875 0.32883 0
0.7125 0.285529 0
0.7125 0.32883 0
0.7 0.350481 0
0.725 0.350481 0
0.7125 0.372132 0
0.7375 0.372132 0
0.725 0.393782 0
0.2625 0.32883 0
0.275 0.30718 0
0.6 0.263878 0
0.75 0.350481 0
0.75 0.393782 0
0.7375 0.415433 0
0.25 0.30718 0
0.2625 0.285529 0
0.475 0.263878 0
0.7 0.263878 0
0.725 0.263878 0
0.2375 0.285529 0
0.25 0.263878 0
0.2375 0.32883 0
0.7625 0.415433 0
0.75 0.437083 0
0.7125 0.242228 0
0.7375 0.242228 0
0.725 0.437083 0
0.7375 0.458734 0
0.7625 0.458734 0
0.75 0.480385 0
0.775 0.480385 0
0.7625 0.502035 0
0.7375 0.502035 0
0.75 0.523686 0
0.725 0.523686 0
0.7375 0.545337 0
0.7625 0.545337 0
0.75 0.566987 0
0.775 0.566987 0
0.7625 0.588638 0
0.7375 0.588638 0
0.75 0.610289 0
0.775 0.610289 0
0.7625 0.631939 0
0.7375 0.631939 0
0.75 0.65359 0
0.725 0.65359 0
0.7375 0.67524 0
0.7625 0.67524 0
0.75 0.696891 0
0.775 0.696891 0
0.7625 0.718542 0
0.7375 0.718542 0
0.75 0.740192 0
0.225 0.263878 0
0.2375 0.242228 0
0.2625 0.242228 0
0.775 0.740192 0
0.7625 0.761843 0
0.7375 0.761843 0
0.5875 0.32883 0
0.2875 0.415433 0
0.2625 0.415433 0
0.275 0.437083 0
0.25 0.437083 0
0.2625 0.458734 0
0.2375 0.458734 0
0.25 0.480385 0
0.225 0.480385 0
0.2375 0.502035 0
0.2125 0.458734 0
0.7875 0.761843 0
0.2125 0.242228 0
0.2125 0.502035 0
0.225 0.523686 0
0.25 0.523686 0
0.2375 0.545337 0
0.2625 0.545337 0
0.25 0.566987 0
0.275 0.566987 0
0.2625 0.588638 0
0.2375 0.588638 0
0.25 0.610289 0
0.275 0.610289 0
0.2625 0.631939 0
0.2375 0.631939 0
0.25 0.65359 0
0.225 0.65359 0
0.2375 0.67524 0
0.2625 0.67524 0
0.25 0.696891 0
0.275 0.696891 0
0.2625 0.718542 0
0.2375 0.718542 0
0.25 0.740192 0
0.275 0.740192 0
0.2625 0.761843 0
0.2375 0.761843 0
0.2875 0.761843 0
0.225 0.220577 0
0.725 0.220577 0
0.75 0.220577 0
0.4625 0.891747 0
0.7625 0.242228 0
0.775 0.220577 0
0.7875 0.242228 0
0.75 0.783494 0
0.725 0.783494 0
0.275 0.783494 0
0.3 0.783494 0
0.2 0.523686 0
0.2 0.220577 0
0.8 0.220577 0
0.2 0.263878 0
0.7625 0.198927 0
0.8125 0.242228 0
0.2125 0.198927 0
0.3125 0.761843 0
0.2875 0.805144 0
0.1875 0.198927 0
0.4875 0.458734 0
0.325 0.783494 0
0.7375 0.805144 0
0.7125 0.805144 0
0.7 0.783494 0
0.825 0.220577 0
0.6875 0.805144 0
0.675 0.783494 0
0.4125 0.285529 0
0.7 0.826795 0
0.2 0.177276 0
0.225 0.177276 0
0.175 0.177276 0
0.3375 0.761843 0
0.6875 0.372132 0
0.7 0.220577 0
0.1625 0.198927 0
0.8375 0.242228 0
0.675 0.826795 0
0.35 0.783494 0
0.85 0.220577 0
0.8375 0.198927 0
0.55 0.870096 0
0.825 0.263878 0
0.85 0.263878 0
0.8375 0.285529 0
0.1875 0.155625 0
0.1625 0.155625 0
0.5125 0.32883 0
0.6875 0.848446 0
0.2875 0.545337 0
0.3625 0.761843 0
0.35 0.740192 0
0.8625 0.285529 0
0.85 0.30718 0
0.8625 0.198927 0
0.85 0.177276 0
0.5625 0.848446 0
0.575 0.870096 0
0.2875 0.458734 0
0.375 0.783494 0
0.3625 0.805144 0
0.3 0.30718 0
0.175 0.133975 0
0.15 0.133975 0
0.875 0.30718 0
0.8625 0.32883 0
0.875 0.177276 0
0.8625 0.155625 0
0.8375 0.155625 0
0.85 0.133975 0
0.825 0.133975 0
0.875 0.133975 0
0.3875 0.805144 0
0.375 0.826795 0
0.375 0.740192 0
0.3625 0.718542 0
0.2 0.133975 0
0.2125 0.631939 0
0.2 0.65359 0
0.1875 0.631939 0
0.175 0.65359 0
0.1625 0.631939 0
0.15 0.65359 0
0.1625 0.67524 0
0.1375 0.67524 0
0.15 0.696891 0
0.1375 0.631939 0
0.125 0.696891 0
0.1375 0.718542 0
0.15 0.610289 0
0.125 0.610289 0
0.1375 0.588638 0
0.7625 0.805144 0
0.7125 0.848446 0
0.7 0.870096 0
0.725 0.870096 0
0.675 0.870096 0
0.2375 0.415433 0
0.7125 0.67524 0
0.7 0.65359 0
0.6875 0.67524 0
0.675 0.65359 0
0.6625 0.67524 0
0.65 0.65359 0
0.6375 0.67524 0
0.6625 0.631939 0
0.6375 0.631939 0
0.65 0.610289 0
0.625 0.610289 0
0.6375 0.588638 0
0.6125 0.588638 0
0.625 0.566987 0
0.875 0.263878 0
0.2875 0.67524 0
0.7125 0.502035 0
0.7875 0.631939 0
0.4375 0.415433 0
0.1875 0.502035 0
0.4625 0.588638 0
0.7875 0.458734 0
0.8 0.480385 0
0.8125 0.458734 0
0.825 0.480385 0
0.8375 0.458734 0
0.85 0.480385 0
0.8625 0.458734 0
0.875 0.480385 0
0.8625 0.502035 0
0.85 0.437083 0
0.875 0.437083 0
0.5375 0.718542 0
0.775 0.393782 0
0.425 0.263878 0
0.4 0.263878 0
0.4125 0.242228 0
0.3875 0.242228 0
0.4 0.220577 0
0.375 0.220577 0
0.3875 0.198927 0
0.4125 0.198927 0
0.4 0.177276 0
0.425 0.177276 0
0.375 0.177276 0
0.4125 0.155625 0
0.4375 0.155625 0
0.425 0.133975 0
0.45 0.133975 0
0.4625 0.155625 0
0.475 0.133975 0
0.4875 0.155625 0
0.5 0.133975 0
0.5125 0.155625 0
0.525 0.133975 0
0.5375 0.155625 0
0.55 0.133975 0
0.5625 0.155625 0
0.575 0.133975 0
0.5875 0.155625 0
0.6 0.133975 0
0.4 0.133975 0
0.4625 0.67524 0
0.55 0.740192 0
0.4125 0.502035 0
0.3875 0.502035 0
0.4 0.523686 0
0.7125 0.198927 0
0.3 0.566987 0
0.8 0.610289 0
0.8125 0.631939 0
0.825 0.610289 0
0.8375 0.631939 0
0.85 0.610289 0
0.8625 0.631939 0
0.85 0.65359 0
0.875 0.610289 0
0.875 0.65359 0
0.8625 0.67524 0
0.2625 0.805144 0
0.275 0.826795 0
0.25 0.826795 0
0.2625 0.848446 0
0.2375 0.848446 0
0.225 0.826795 0
0.2125 0.848446 0
0.2 0.826795 0
0.1875 0.848446 0
0.175 0.826795 0
0.1625 0.848446 0
0.15 0.826795 0
0.1375 0.848446 0
0.125 0.826795 0
0.2875 0.848446 0
0.1375 0.155625 0
0.125 0.133975 0
0.525 0.263878 0
0.6125 0.155625 0
0.625 0.133975 0
0.175 0.870096 0
0.225 0.870096 0
0.275 0.870096 0
0.3 0.870096 0
0.1125 0.848446 0
0.125 0.870096 0
0.1125 0.588638 0
0.125 0.566987 0
0.1125 0.631939 0
0.1125 0.155625 0
0.8875 0.32883 0
0.8875 0.502035 0
0.4125 0.112324 0
0.3875 0.112324 0
0.588287 0.112778 0
0.8625 0.112324 0
0.486701 0.112783 0
0.1875 0.112324 0
0.2125 0.112324 0
0.1375 0.112324 0
0.53645 0.113848 0
0.1125 0.112324 0
0.8875 0.112324 0
0.8875 0.67524 0
[...]
CELL_DATA 3720
SCALARS Temperatura double 1
LOOKUP_TABLE default
1
1.29318e-08
1
1
0.999998
-1.33588e-11
3.15162e-06
1
0.999996
1
6.64326e-05
1
0.999592
1
-1.4958e-13
1.00001
-8.05478e-12
1.05493e-08
-0.00858932
1
1
-2.11343e-09
-9.20639e-13
0.999999
-0.0617726
-4.12649e-09
1
3.72696e-06
8.07326e-09
1
0.999411
-1.61089e-13
1
1
1
1
-0.000111589
6.6086e-06
1
3.77584e-08
-0.0101873
5.95786e-08
-0.0989026
1
-0.0158764
3.28094e-10
0.000426693
1
-3.15229e-09
-2.98488e-13
4.53101e-08
4.16327e-09
-4.89775e-11
0.233914
1
-2.815e-11
-0.0858145
1
-5.82284e-05
-0.043079
-4.53187e-07
9.76541e-10
-0.000120811
4.37626e-06
7.01362e-06
2.49551e-06
4.33765e-09
6.71193e-08
2.54003e-08
0.00282485
0.00832229
0.004632
4.53409e-15
3.38759e-15
1.15442e-14
-1.88709e-13
7.78374e-13
1.38196e-06
1
1
-0.000133726
-6.7017e-14
1
-5.36315e-13
0.000295337
0.000743444
1.20252e-12
9.10243e-13
1.71154e-11
1.50833e-10
-4.06252e-05
0.00264294
-7.49581e-12
-6.2529e-14
8.58459e-11
-1.02962e-13
-1.00025e-06
-4.99481e-15
8.24588e-06
1
-0.00816717
5.8849e-06
3.64256e-10
0.123821
1
2.66985e-08
0.776471
-4.78683e-05
6.67461e-06
0.821739
0.999999
0.320162
1
-8.07468e-07
1.05085e-10
1.00003
1
1.62533e-10
2.10934e-13
1
4.50299e-11
0.0462618
6.9881e-06
1.30838e-05
1
1.66696e-10
-4.04022e-07
-0.0333158
-0.0954376
-1.05859e-10
-4.29499e-07
-2.326e-05
-6.55744e-14
0.999622
-3.42418e-11
-0.000114268
0.00454855
-1.08247e-13
1.10662e-12
1.91908e-06
2.92654e-10
-3.58929e-09
3.92856e-09
1.00001
-3.53916e-11
-0.0284331
-4.58627e-07
1.06995e-08
-4.56291e-05
9.36322e-06
0.0126078
1.65578e-12
-1.60014e-11
4.36669e-15
-9.13961e-14
3.52192e-15
1.3772e-06
0.00253317
0.00299524
3.21024e-08
2.3489e-12
-3.34226e-12
1
2.88857e-10
-8.43665e-05
-0.000155955
-2.38886e-13
-1.85149e-13
-5.60106e-10
-0.0324626
4.67157e-15
8.9369e-06
-6.27027e-08
-2.18418e-14
3.55496e-08
-1.48248e-05
0.00212267
2.55633e-12
2.45449e-13
-3.42631e-11
-1.81131e-05
-0.000109358
0.00314348
-0.00186698
-1.36588e-11
-6.79241e-13
-1.48964e-13
-5.23453e-14
5.70422e-12
1.4946e-10
1
1
1.82028e-10
1
1
1
1
2.25285e-05
1
-6.81721e-05
-7.487e-10
1
1.00003
2.43345e-14
1
1.00004
0.418818
2.49009e-14
1.00172
-9.44094e-14
-0.0172404
3.26502e-10
0.0736678
0.00112522
0.264614
-7.51787e-10
1
-4.06561e-09
1
0.999934
-0.0168983
-2.11844e-13
-0.0192584
-0.000161357
1
0.454549
-4.09718e-16
1
0.105266
1
-5.18649e-07
1
-1.66174e-09
5.44555e-06
0.0010828
-1.00893e-09
0.366871
0.219115
0.157409
1
0.0748389
-0.0185364
1
3.98895e-09
1
-1.49145e-13
4.15533e-10
0.505507
0.2847
-1.55711e-07
1.69291e-08
-1.34314e-07
0.0306664
0.288777
-8.21483e-06
9.8156e-16
3.08116e-08
-0.0132856
-0.017726
1
-0.0117414
-1.18598e-11
2.61817e-12
2.41201e-13
6.89494e-05
0.00146521
-0.0370685
7.22706e-15
5.6989e-06
1.00891e-08
-1.46261e-09
-1.83988e-07
-1.52916e-09
0.0196117
0.15394
-0.00651702
-0.000187153
0.0023733
-7.08807e-14
1.60567e-12
-2.49119e-11
-3.26621e-11
-7.60807e-12
1.10379e-12
2.10875e-12
7.25822e-13
-6.20228e-14
-0.000163093
0.000369745
0.000404708
0.00188916
0.171721
-4.88087e-13
-2.18973e-07
-3.37708e-07
-5.4446e-08
0.289068
1
0.101969
1.00004
1.00004
6.54186e-15
9.1196e-15
-3.01081e-09
0.0408424
2.07783e-08
0.422492
4.44549e-15
0.000454086
0.215409
5.63477e-08
1.23023e-14
0.0170653
4.83041e-08
-4.82056e-15
-0.0114897
6.12305e-08
-0.0180791
2.70233e-08
-0.0193442
2.33415e-08
5.82917e-09
0.983104
0.977626
0.98589
1.00512
0.978715
1
0.984838
1.03898
0.996688
1.06868
1.09653
1.00163
1.08136
0.979033
1.01346
0.399243
0.61061
0.0336338
0.981024
0.116882
-0.010536
-0.0217151
-0.0234588
1.00392
1.00364
1.03678
1.00556
1.02042
1.00478
0.995355
0.99902
1
1.00479
1.00281
1.00574
0.984803
1.0052
0.997348
1.04357
1.00103
0.322215
-8.23709e-05
-0.000111729
0.000467215
1.07292
1.09892
0.708239
1.09842
1.09578
1
1
0.757125
5.28283e-05
-0.000614063
0.799784
0.230265
-0.00390804
0.000203731
-9.913e-05
0.882127
0.842
1.10085
0.982313
-0.00010319
-6.22209e-05
0.999995
0.181423
0.257486
0.978801
-7.6638e-05
-2.92387e-05
0.91661
0.876476
1
0.0549333
0.0307444
0.000877656
1
0.310799
1
0.994564
0.504371
1.00025
-0.0378819
1.00038
0.557054
1.0022
1.00017
0.756915
1.00004
1.00032
1
1
1.00031
0.000791058
1.00002
1.00291
-0.0136842
1
1
-6.45936e-05
1.00023
0.000318356
0.00185733
1.00442
1
0.000282751
1
-3.12762e-09
1
-0.0190663
0.999102
1
1.01254
0.00159353
1.12434
-0.00501909
0.141546
0.998044
0.999873
0.979285
0.202825
-0.0044543
1
1.00036
0.076553
0.99978
1.00224
0.00268572
1.00405
0.00152477
1.00075
0.985333
0.999998
1.00035
0.988324
0.999982
-2.04672e-06
1.00003
1.08966e-05
1
0.999987
0.000765141
1.00001
0.999025
1.00137
-0.000149838
-0.0190356
1.07429
1.00368
0.998761
0.00144878
1.09986
0.991132
0.999998
0.988647
1.00009
1.00296
0.998767
0.00126108
0.999988
1.0016
1
0.985285
1.00297
0.999994
0.988114
1.00002
0.999999
1
1
7.39934e-05
0.999459
0.981578
0.9945
-7.33223e-07
0.998799
-6.23052e-07
1
0.981147
0.999994
1.00022
1
-0.000110755
0.999999
0.999992
-2.11708e-09
0.999992
0.99999
1.00524
1
4.56034e-06
1.27531e-06
1.00003
0.999903
-8.95783e-08
1.0561
2.60022e-09
2.4279e-06
0.999991
1.10212
-5.89118e-07
0.999333
1.00039
1.00002
1
0.999917
0.99911
7.9296e-07
1.00461
0.998377
1.00002
1.10133
1
1.00593
2.50285e-06
0.00114028
0.999988
-7.02488e-07
1.01789
1.00037
0.999985
0.999543
0.98953
1
0.999355
-6.8291e-08
1
1.00002
1.00292
0.999988
0.999991
1.00027
1
-0.00368386
1.0412
0.981863
-0.0207887
1
1
0.813849
0.999996
-0.0104283
1
1
1.00034
0.0412001
1
0.999954
-0.00014368
-0.011245
1.0628
-3.68718e-07
1
0.999899
1.08096
-1.35727e-09
1
1.08441
1.00001
-0.0307579
0.999895
1.00042
1.00218
1.00001
1
1.0007
1.00296
0.997735
1
-0.00102479
0.975077
1
3.73991e-07
0.99999
1
2.22111e-12
0.999938
-4.23955e-09
-6.15697e-10
1.02142
1
-0.000108276
1.27743e-06
1
0.813091
1
2.15562e-12
9.90718e-09
0.00276256
0.925296
3.57847e-08
0.986616
-9.82788e-08
1.0619
1
0.771823
1.0001
-1.79397e-07
0.999998
0.999951
3.34938e-09
1.00318
0.999998
3.19239e-08
-2.33232e-07
6.28179e-06
0.45267
0.983442
3.50808e-08
1.00535
0.999374
0.999998
1
1
0.999994
1.02104e-08
1.00017
1.03035
0.983739
-0.00477251
1.02687
1.00034
1
1.0014
1
1.00471
1.00002
-0.0115293
1
0.999972
1
5.88896e-08
-0.0195528
0.637181
1
-1.59573e-08
-4.23177e-07
1.00045
0.467778
1.00004
-8.23901e-07
1.00001
8.72102e-07
-7.2717e-10
0.35846
1.00034
1
0.999999
-0.0103189
1.00004
0.12133
1.00053
-1.53319e-07
-3.53694e-07
0.0717212
-1.78476e-10
1
3.44253e-06
-5.72984e-07
-0.0113588
6.42932e-08
1
1.06375
1.04452
1
0.53293
1.01364
1.10363
1
0.999997
-0.0147979
2.19535e-10
1.00002
1.03899
1
1
1.00605
1
0.247815
1.00404
1
1
1
1.06368
1.00759e-05
1
0.982415
1.00003
0.608249
1
1
0.991285
1
1
-6.03024e-10
1.00309
0.999951
0.981081
-5.9221e-07
-0.0271134
0.026911
1
-0.0208863
0.862598
0.989142
1
0.000977853
-0.0294441
1
0.273422
1
1
-0.00281256
-0.00529484
1
1
1
9.84489e-06
0.999999
0.970683
5.84173e-11
1
1
-0.0535453
2.58132e-10
0.999965
-6.74205e-05
1.0003
1
2.19205e-12
1.03977
-0.00410196
3.85719e-10
-0.0154099
-2.71095e-09
5.41814e-09
-0.0190233
4.1265e-10
0.113084
1.00338
1
1
0.683481
1
1.00041
1
1.05362
0.000693882
0.589202
1.86957e-06
-0.0332396
1
0.99989
1.02003
-1.2247e-06
1.00003
0.887345
2.07034e-10
1
1
-3.75846e-05
-0.0230047
1
-0.0258031
0.99799
0.000887963
-0.036713
0.989364
0.554596
1.01163e-08
1
1.06304
0.682378
1
-5.24577e-05
1.02321
1
1
1.00667
-0.0332855
1
0.999988
3.05232e-06
0.5883
1.07232
1
0.999998
1
0.989637
1.00673
0.999998
-7.40835e-05
1
0.992313
0.851419
1
1
1.00148
0.685629
1
1.07161
1.00038
-0.0258968
1
-0.0516974
1
1
4.16453e-10
-0.000670248
1
-4.87038e-11
0.999558
1
1.00481
8.16829e-06
0.350968
0.980395
0.0941369
0.0167464
0.320564
1.0798
-0.0215154
1
1.00505
0.999978
0.487704
1
1.00003
1
1
3.71022e-07
0.99999
1
1.30916e-05
1
1
1
1.10649
1
-0.0278128
0.912534
-4.97439e-17
1.05443
0.000626946
1.00003
1
1.08412
1
0.999991
1
0.782816
1
1
0.999895
1.00002
1
0.999987
0.000139966
0.0890648
-0.0128369
1
1.00145
0.999874
1
1.23524e-12
1.0037
1
1.00149
-2.34359e-13
1
0.999252
-0.00784773
1.09837
1.07899
0.951266
0.500765
1.10133
-6.70749e-09
0.999999
0.524546
0.546689
0.999901
1
9.37345e-06
0.0641498
1.03553
1.08507
1
0.732688
-1.87265e-10
-0.00786388
-0.0145111
1
1
1
1.0602
1.0105
1
1.00001
1
0.00132019
-4.58755e-09
-3.18844e-05
1
0.933187
1
0.942824
-2.2841e-07
1.00001
1
1
1.00023
0.999996
1
-0.0130472
4.44149e-08
0.981699
0.142916
-2.6715e-09
1.01562
1
0.107133
-9.18838e-05
-7.34407e-08
-0.00616697
0.000310473
0.0118723
1
6.4018e-06
1.00238
0.979177
0.00151282
1
1
0.999935
1.06939
0.980216
1
1.01101
-0.0213647
3.67521e-08
7.01099e-13
1
1.00001
2.7942e-11
0.999887
1
1.02953
1.08996
1.00002
0.984391
1
0.00642162
0.977356
6.85394e-06
0.990306
1.98655e-10
0.999157
9.14232e-09
-0.00159301
1
1
0.999769
-4.14932e-09
1
6.26443e-08
0.0597659
0.998002
1
1.0002
1.00404
9.14084e-06
-5.39512e-07
-5.62341e-09
1
0.00120555
1.08305
-5.60243e-06
1.09175
0.999916
-0.0001132
-2.83307e-13
1
0.00378927
0.999934
1.00016
0.000460837
1
-8.90285e-07
-0.00698765
1.00145
1
1
0.999999
0.959557
0.996116
0.999999
1
1.056
0.228469
0.999997
0.329562
-3.65133e-09
0.999988
0.845709
-1.66005e-09
-5.36002e-07
0.988612
1
0.933654
1.00446
1.01901
1
-0.0301792
1
4.52115e-07
0.999925
-9.39603e-07
-0.00583404
0.99991
7.82949e-16
-0.00295922
6.66812e-09
1.02876
1
9.57334e-06
1.00004
1.00027
1
1
1.00388
-1.93421e-09
1
0.999931
0.724826
8.32163e-13
0.200042
1.00003
1
1.00003
-0.0436642
1
1
1
0.00224301
0.999999
1.00045
0.684276
1.00013
1
0.988789
1.10563
1
1
1.00001
0.00854344
1
1
0.999944
1
1.00001
0.999467
0.999993
1.00342
1.00003
-0.00309288
0.133937
1
-0.016034
1
0.853559
1
0.998526
1
-0.000582873
1.00001
0.000565129
0.00395055
0.989952
1
0.146908
1.02617
2.86363e-12
1.00001
-0.00309683
0.0737445
0.227169
0.991508
0.00145949
1.00034
0.97861
0.995766
1
1
1
7.71068e-06
-0.0148715
1.09537
1
1.00002
-1.92022e-11
0.998763
1.00012
0.99992
0.04442
5.17578e-08
-7.91712e-10
1
0.0594861
0.476777
0.575376
1
0.993688
0.99984
1.00322
2.47647e-10
5.69802e-11
1
-5.54523e-05
0.482404
0.998617
3.09226e-10
1.0242
0.999987
0.999987
-9.74664e-10
0.934084
0.122326
1.25172e-05
-2.38975e-12
1.00021
1
4.06565e-08
0.999989
1
-0.0135729
-0.00832361
-4.16732e-05
1.00147
1
1
1.00004
-0.0157389
1.00876
0.999811
1
-4.99686e-05
-0.0241682
0.98095
1.00012
1.00505
0.999999
-0.0193248
0.68301
1.08068
0.99968
0.984052
0.88647
0.991082
-0.000118143
0.998436
1
-0.0159458
0.99941
-0.0235553
1.0906
1
1
-7.72265e-10
-0.000358701
1.04154
9.2043e-13
0.627609
-1.71564e-11
-6.87895e-05
8.41535e-11
1
-3.1557e-11
1
0.999058
-3.27349e-09
0.226345
1
3.42263e-12
0.00639198
-4.6581e-14
0.736828
-2.08219e-08
0.82627
-0.00365277
0.107183
0.999953
0.514915
0.379093
-0.00153739
0.99616
-3.80191e-11
1
1
0.999453
1.0025
1
-2.51575e-06
-2.13101e-05
0.999989
0.990441
0.243202
0.00133415
-0.0143504
0.998891
1.00027
1.00276
0.999908
0.999891
0.999012
-1.81091e-14
1
-2.39277e-05
1.0057
0.999284
-4.93464e-06
1.0003
-1.45154e-09
1
1.05681
-0.000104056
0.998643
1.05238
-3.86198e-09
0.999921
1.75556e-08
-3.03519e-11
3.42069e-08
1
-0.000121226
-0.0200566
0.00185455
1
0.00113961
-0.0220866
0.999264
7.32531e-06
1
-1.50777e-08
-0.00446979
2.74618e-11
-0.0191618
-1.87804e-06
-0.0113047
3.40082e-08
1.1283e-10
0.980672
0.980095
0.988745
0.998563
0.999048
1
-1.41614e-11
1.27273e-05
1.01804
0.999476
-2.06686e-13
7.53678e-06
-3.35201e-09
0.569472
1
0.999986
-0.000196672
-0.00711938
8.35016e-06
0.0360041
-0.000117142
4.94144e-06
1
0.999059
-0.0284416
0.999745
0.459643
1.00158
0.450911
4.64475e-08
-9.0126e-05
0.993514
0.994124
0.0137651
-8.17641e-10
0.999986
0.492806
3.67353e-06
-5.70913e-07
1
0.999907
-0.0072152
-3.71184e-09
1
-1.81227e-09
6.80253e-06
-2.21698e-05
-7.9455e-07
0.979734
1.0594
0.165387
-4.67082e-06
-3.29327e-09
1
-3.34723e-11
-1.92867e-09
0.00112279
1
0.40918
1
0.306204
0.999742
1.00003
6.93413e-06
1.03342
-5.17236e-09
4.91094e-06
1
1
-5.23441e-09
1.01621
0.999901
0.998955
0.000711643
0.789889
1.00003
-0.0048516
0.952821
-3.94783e-07
-0.000140357
0.999961
0.0100477
2.94559e-10
1.00164
-7.95156e-12
1.00028
1
0.277377
-3.22194e-07
0.998801
1.00031
-5.23467e-07
0.998996
0.882015
1.04622
3.01032e-10
-1.29589e-11
3.24656e-10
-2.54389e-11
1.07109
0.994093
2.94934e-10
-0.0238625
1
1.0159
3.65449e-14
2.67031e-10
0.160364
0.00170117
0.999884
6.15467e-06
0.999351
-4.71221e-07
-1.80299e-05
1.2635e-12
0.991617
0.161682
0.343228
0.630341
2.37741e-08
1
1.10469
-5.70112e-07
0.986546
1.09309
9.60525e-06
0.367857
1.98357e-09
2.20584e-06
-1.31288e-07
0.999467
-3.98116e-09
1.21958e-05
1
1
-0.0170855
1.0007
-1.5175e-07
-7.90933e-05
1.06216
0.771779
0.436081
6.63885e-06
1.00496
1.08917
1
1.03076
0.202512
-0.00403133
-0.0173668
6.9986e-06
1.00024
1.00454
1
0.114519
-3.46642e-07
1.09013
-6.60648e-07
1.85659e-06
4.7256e-08
0.99991
8.68064e-09
0.963082
6.29244e-06
4.66211e-10
1.08747
-4.92907e-09
0.995529
-8.66928e-07
-3.83352e-09
-3.86737e-10
4.43701e-10
1.20937e-06
-7.55432e-07
0.998817
-2.53551e-09
-2.07025e-07
0.999974
6.49618e-07
-0.00935082
1.07451
0.996215
5.57112e-08
0.20455
0.422826
-2.57639e-09
-8.5467e-07
0.982446
1
1.05882
0.0419121
1.00101
-2.88561e-05
0.993504
6.80493e-06
0.995937
-3.21442e-07
0.999988
-0.000185599
-5.33086e-08
-5.59336e-05
1.07769
-1.32888e-06
0.000985784
-2.80429e-09
4.26484e-06
-2.7268e-11
1
-7.33912e-05
2.73281e-06
5.76126e-06
-5.31063e-05
0.990505
0.999989
1.0344e-05
-0.021823
-4.08736e-09
0.97973
1.00014
1.15e-05
-0.0114534
0.999867
-6.18746e-06
1.00197
0.999998
0.00131859
0.00536829
-2.91512e-09
0.300086
2.14488e-06
1.00054
0.999998
1
-5.23821e-05
-5.42849e-07
1.41833e-10
0.839714
1
1.01024
0.00229495
1.00035
-1.73755e-05
1.92429e-10
1.56347e-08
0.000246861
-2.32878e-07
0.999427
0.902483
-9.55433e-05
-1.56974e-05
0.0631126
-0.000158947
0.00267278
0.999594
0.298837
-0.000877273
0.991924
0.420977
1
1
-1.77539e-07
0.304762
-6.61798e-06
4.6648e-09
0.999631
1.00429
8.92496e-06
4.48392e-08
-2.28928e-07
0.00144236
-4.9396e-07
-0.00775913
1
1.00003
0.998729
0.00107638
1.07597
-9.47656e-10
1
1
-0.000128438
0.22197
1.21969e-06
6.96493e-11
-2.79014e-09
6.69183e-06
-6.47701e-05
-1.15037e-07
-2.32716e-09
-4.21542e-07
1.00269
0.00162644
-0.000132659
0.176995
0.00015341
0.34513
0.990739
1
-0.000103401
-0.00969328
-1.58999e-07
6.88436e-09
1.68945e-14
0.00142371
1.02177
0.988293
0.977739
0.475896
8.32728e-05
0.99993
0.982487
1.04579
3.55417e-08
0.999607
-2.36982e-08
2.50517e-06
1.00004
7.06634e-08
0.988112
4.6151e-08
0.00112307
0.000307815
-5.69948e-05
1
1
-1.69681e-09
1.08811
-2.43288e-07
8.02713e-07
3.12341e-08
0.997426
9.33694e-07
3.03634e-08
9.36934e-06
1.49698e-10
6.24738e-06
-5.61741e-07
0.000608371
-6.47733e-05
3.26661e-08
0.981908
0.254134
9.83915e-06
2.13483e-06
0.999915
1.51705e-06
0.606134
0.622091
-0.0033043
0.0148544
2.25651e-08
-0.00523082
2.59213e-08
0.182401
0.999999
4.78679e-06
0.985317
-9.76484e-05
5.17711e-07
1.02989
1.09782
1.0665
0.231958
6.12588e-06
-6.99207e-05
-8.40751e-05
0.335001
-9.42526e-08
3.07108e-07
5.53173e-06
-0.000106689
0.00186955
-5.25932e-11
0.00137442
-0.0182824
5.70514e-06
0.999449
-0.000118587
1.00065
-2.44101e-06
1
0.000259057
1.089
0.999663
1.01523
-0.0222965
0.999569
-0.000142933
-5.3658e-07
0.00163939
1.00313
0.35897
-2.60683e-05
3.93634e-06
0.000775581
-0.0158582
-5.89841e-07
0.839199
7.20439e-07
-3.76389e-06
7.5787e-06
1.00327
-4.95783e-05
1.12777e-06
0.997463
-4.71006e-07
1
-8.99686e-05
0.998719
1.04464e-07
7.99432e-06
1.00017
0.984851
-3.66966e-09
0.000604239
6.19565e-08
1.07743
1.9998e-08
-3.63026e-07
1.0003
3.9778e-11
1.0931
0.998689
-0.0211536
0.99922
0.00076491
9.0963e-06
0.998857
-1.32474e-05
1.00006
0.999897
0.000541002
0.998984
1.00007
-0.0018815
-6.31512e-05
0.92777
0.999935
-4.02938e-07
1.29578e-05
1.00088
-0.00420788
-0.014727
3.22508e-06
7.72188e-07
0.999999
0.973141
-4.87627e-09
1.00466
0.998573
0.00324839
0.993571
0.998676
-6.86066e-07
1.09346
0.728509
0.837099
0.999893
0.998314
7.30011e-06
0.987102
0.00142952
1.00354
0.929251
6.71265e-06
0.00202784
0.999987
0.998978
4.94525e-08
0.984988
0.99988
1.00367
0.999312
0.0839735
-2.87197e-08
1.0971
7.97556e-06
-6.15549e-07
3.53467e-08
-0.0209823
-1.45205e-07
0.999813
-2.26408e-05
1.00407
0.000849702
0.00227981
5.41193e-08
1.09133
-0.0233825
0.002021
0.990997
-0.0183063
1.02086
6.11623e-06
-1.05552e-09
1
-4.47542e-09
4.60716e-08
1.00238
5.02344e-11
0.381278
1
0.000721825
0.999975
1.00021
0.999892
-3.7106e-05
-1.49966e-07
0.00090688
1.09631
4.28525e-06
-3.57281e-09
-4.62986e-05
0.747853
6.80366e-06
0.105207
-7.23225e-07
0.99905
0.282215
0.998887
-1.42663e-07
8.64991e-06
-3.25204e-05
1
1
-5.55958e-07
-0.00875053
0.995485
1.0348
9.08712e-06
-0.00791099
-0.0252959
1.04208
0.205225
0.391668
0.349187
1
1
1
1.00004
0.138766
4.39706e-07
1.08389
-0.000135838
-0.0041553
1
0.00191282
-5.72336e-07
-0.000128047
-0.00284734
1.00553
3.40719e-07
0.853581
-0.00237262
-8.35346e-05
-0.000135037
0.979585
1.05691
-4.05616e-11
0.0294315
-5.00272e-07
1.00032
-0.0239017
-2.16381e-05
0.993314
-8.90333e-05
1.00421
1.00017
1.08546
0.0388564
1
0.436787
1.09295
-0.015439
0.000383445
0.00151237
6.53931e-06
1.00191
1.20601e-08
3.49879e-06
1.03178
3.60071e-06
5.62505e-06
0.99901
1.00016
1.00104
0.181701
1.00003
0.00128132
0.992792
0.999915
0.32225
0.945814
-3.28801e-12
0.998646
1.00498
1.07991
1.10102
0.590241
-0.0122144
0.967738
-0.0222794
1.00031
0.547306
0.999955
1.06144
0.000497407
-0.0256427
3.74081e-10
-0.0060195
0.999391
0.000915387
1.00312
1.11023e-05
1
1.00015
0.000141389
-2.46862e-06
-0.0221057
1.00418
1.04836
1.00534
7.00741e-08
4.63959e-06
0.646428
0.980175
-2.40473e-07
0.00219575
0.900105
0.00169542
4.31508e-08
0.403086
0.999537
0.991025
2.09795e-05
0.999934
-0.0224751
0.992747
1.08483
-2.35934e-05
0.434662
-5.12724e-10
1.09916
-0.000126128
6.16805e-06
-0.0164364
-2.65036e-08
2.20716e-05
0.134138
0.999046
1.00397
0.000849308
0.000675457
0.979198
6.03328e-06
0.983806
0.00124694
0.862547
1.00058
0.000510135
0.773163
0.999013
1.07927
6.4988e-06
1.00001
0.366023
-0.00147852
1.02082
1.00289
-0.00584032
0.000842828
-2.85449e-07
-0.000177618
1.00497
0.156945
-7.94215e-05
1.04973
1.07886
0.00044085
-0.00209939
0.000698295
1.0234
1.95086e-10
0.000100331
-3.73578e-05
-3.26306e-09
0.000445585
7.47033e-06
-5.26638e-08
1
0.374759
9.49889e-06
1.04836
0.999992
1.01846
0.317626
0.999247
0.999985
0.980281
-7.74567e-08
1.0976
-0.00328501
3.14967e-08
1.10038
-1.9152e-05
0.000356497
0.0543056
1.08913
0.0354345
4.31504e-08
1.05906
1.05735
0.000868662
-0.00253325
0.181717
-0.00654127
0.99898
0.00135957
2.80655e-10
-4.14413e-07
0.656703
-0.0153235
-4.10783e-07
-2.26731e-05
1.02746
-0.00919436
1.66859e-08
-0.000157218
1.01098
1.04561
0.00021633
1.00347
1.00419
-0.000116512
1.15755e-08
1.09961
0.990929
1.08311
1.04968
0.999986
1.00021
0.999913
1.09557
1.07833
1.08464
-8.09607e-05
1.09071
1.00704
-1.08022e-05
1.07374
-0.0159879
6.67492e-12
0.999908
0.00159226
-6.45769e-05
0.00241187
0.872156
-0.00910491
0.999457
0.98081
0.993539
5.03812e-11
-1.07915e-06
-5.82815e-07
2.38574e-12
-0.000101283
-0.0111808
1.00027
1.01052
-0.0276448
-0.0106678
-1.15863e-09
0.153323
0.999965
0.000477003
0.569168
1.00003
1.00155
0.998501
0.262519
-0.00013812
1.00198
0.0175752
1.00018
-0.0137763
0.999854
-0.00147341
3.93412e-08
1.00028
-3.50251e-07
-1.32992e-10
1.07085
0.0298317
1
-8.78786e-05
1.02817
1.00092
0.000462171
-0.0306506
1.08311
-0.00329383
-0.0162787
1.06133
0.0203322
-0.0226041
0.00156412
7.00371e-06
-0.0144039
0.664627
1.06332
0.939326
1.00016
0.10313
-0.000125009
1.00012
1
1.03577
0.00185718
-8.7587e-05
1.0039
1.06708
0.993449
-2.73452e-11
-0.0241206
0.998761
0.908153
-1.0328e-07
8.54486e-06
1.00023
0.892277
-0.0292621
1.02104e-05
0.00118776
0.00161799
0.0893428
0.998899
-0.0303998
2.18787e-08
0.674116
-0.00665848
-3.42313e-07
-8.0501e-07
0.999893
6.7901e-06
1.0013
-0.00013845
1.00002
3.25074e-10
1.00497
-0.000191329
1.04635
1.00031
0.000989829
1
0.99939
0.231867
0.999968
-0.0218944
-7.20403e-05
0.998299
-0.00309629
0.999869
-0.0092432
-0.0201988
1.00003
1.01116
7.64336e-06
0.99973
1
1
0.575562
-8.65439e-12
1.00411
0.989243
0.999471
-0.0189971
-0.00518754
1.00003
1.0001
0.00236151
0.999981
0.985234
1.00208
-0.0157611
8.83389e-05
0.487093
0.998832
0.00195779
0.00155046
1