# vtk DataFile Version 3.0
Malha 2D com triângulos e temperatura
ASCII
DATASET UNSTRUCTURED_GRID

POINTS 36 double
0 0 0
1 0 0
1 1 0
0 1 0
0.2 0 0
0.4 0 0
0.6 0 0
0.8 0 0
1 0.2 0
1 0.4 0
1 0.6 0
1 0.8 0
0.8 1 0
0.6 1 0
0.4 1 0
0.2 1 0
0 0.8 0
0 0.6 0
0 0.4 0
0 0.2 0
0.2 0.2 0
0.2 0.4 0
0.2 0.6 0
0.2 0.8 0
0.4 0.2 0
0.4 0.4 0
0.4 0.6 0
0.4 0.8 0
0.6 0.2 0
0.6 0.4 0
0.6 0.6 0
0.6 0.8 0
0.8 0.2 0
0.8 0.4 0
0.8 0.6 0
0.8 0.8 0

CELLS 25 125
4 0 4 20 19
4 19 20 21 18
4 18 21 22 17
4 17 22 23 16
4 16 23 15 3
4 4 5 24 20
4 20 24 25 21
4 21 25 26 22
4 22 26 27 23
4 23 27 14 15
4 5 6 28 24
4 24 28 29 25
4 25 29 30 26
4 26 30 31 27
4 27 31 13 14
4 6 7 32 28
4 28 32 33 29
4 29 33 34 30
4 30 34 35 31
4 31 35 12 13
4 7 1 8 32
4 32 8 9 33
4 33 9 10 34
4 34 10 11 35
4 35 11 2 12

CELL_TYPES 25
9
9
9
9
9
9
9
9
9
9
9
9
9
9
9
9
9
9
9
9
9
9
9
9
9

CELL_DATA 25
SCALARS Temperatura double 1
LOOKUP_TABLE default
0.100564
0.100759
0.100818
0.100839
0.100626
0.299982
0.299984
0.300051
0.300122
0.300108
0.500004
0.499993
0.500051
0.500047
0.500032
0.699959
0.699928
0.699968
0.699817
0.699781
0.898399
0.897902
0.897877
0.89779
0.898188
