# vtk DataFile Version 3.0
Malha 2D com triângulos e temperatura
ASCII
DATASET UNSTRUCTURED_GRID

POINTS 961 double
0 0 0
1 0 0
1 1 0
0 1 0
0.0333333 0 0
0.0666667 0 0
0.1 0 0
0.133333 0 0
0.166667 0 0
0.2 0 0
0.233333 0 0
0.266667 0 0
0.3 0 0
0.333333 0 0
0.366667 0 0
0.4 0 0
0.433333 0 0
0.466667 0 0
0.5 0 0
0.533333 0 0
0.566667 0 0
0.6 0 0
0.633333 0 0
0.666667 0 0
0.7 0 0
0.733333 0 0
0.766667 0 0
0.8 0 0
0.833333 0 0
0.866667 0 0
0.9 0 0
0.933333 0 0
0.966667 0 0
1 0.0333333 0
1 0.0666667 0
1 0.1 0
1 0.133333 0
1 0.166667 0
1 0.2 0
1 0.233333 0
1 0.266667 0
1 0.3 0
1 0.333333 0
1 0.366667 0
1 0.4 0
1 0.433333 0
1 0.466667 0
1 0.5 0
1 0.533333 0
1 0.566667 0
1 0.6 0
1 0.633333 0
1 0.666667 0
1 0.7 0
1 0.733333 0
1 0.766667 0
1 0.8 0
1 0.833333 0
1 0.866667 0
1 0.9 0
1 0.933333 0
1 0.966667 0
0.966667 1 0
0.933333 1 0
0.9 1 0
0.866667 1 0
0.833333 1 0
0.8 1 0
0.766667 1 0
0.733333 1 0
0.7 1 0
0.666667 1 0
0.633333 1 0
0.6 1 0
0.566667 1 0
0.533333 1 0
0.5 1 0
0.466667 1 0
0.433333 1 0
0.4 1 0
0.366667 1 0
0.333333 1 0
0.3 1 0
0.266667 1 0
0.233333 1 0
0.2 1 0
0.166667 1 0
0.133333 1 0
0.1 1 0
0.0666667 1 0
0.0333333 1 0
0 0.966667 0
0 0.933333 0
0 0.9 0
0 0.866667 0
0 0.833333 0
0 0.8 0
0 0.766667 0
0 0.733333 0
0 0.7 0
0 0.666667 0
0 0.633333 0
0 0.6 0
0 0.566667 0
0 0.533333 0
0 0.5 0
0 0.466667 0
0 0.433333 0
0 0.4 0
0 0.366667 0
0 0.333333 0
0 0.3 0
0 0.266667 0
0 0.233333 0
0 0.2 0
0 0.166667 0
0 0.133333 0
0 0.1 0
0 0.0666667 0
0 0.0333333 0
0.0333333 0.0333333 0
0.0333333 0.0666667 0
0.0333333 0.1 0
0.0333333 0.133333 0
0.0333333 0.166667 0
0.0333333 0.2 0
0.0333333 0.233333 0
0.0333333 0.266667 0
0.0333333 0.3 0
0.0333333 0.333333 0
0.0333333 0.366667 0
0.0333333 0.4 0
0.0333333 0.433333 0
0.0333333 0.466667 0
0.0333333 0.5 0
0.0333333 0.533333 0
0.0333333 0.566667 0
0.0333333 0.6 0
0.0333333 0.633333 0
0.0333333 0.666667 0
0.0333333 0.7 0
0.0333333 0.733333 0
0.0333333 0.766667 0
0.0333333 0.8 0
0.0333333 0.833333 0
0.0333333 0.866667 0
0.0333333 0.9 0
0.0333333 0.933333 0
0.0333333 0.966667 0
0.0666667 0.0333333 0
0.0666667 0.0666667 0
0.0666667 0.1 0
0.0666667 0.133333 0
0.0666667 0.166667 0
0.0666667 0.2 0
0.0666667 0.233333 0
0.0666667 0.266667 0
0.0666667 0.3 0
0.0666667 0.333333 0
0.0666667 0.366667 0
0.0666667 0.4 0
0.0666667 0.433333 0
0.0666667 0.466667 0
0.0666667 0.5 0
0.0666667 0.533333 0
0.0666667 0.566667 0
0.0666667 0.6 0
0.0666667 0.633333 0
0.0666667 0.666667 0
0.0666667 0.7 0
0.0666667 0.733333 0
0.0666667 0.766667 0
0.0666667 0.8 0
0.0666667 0.833333 0
0.0666667 0.866667 0
0.0666667 0.9 0
0.0666667 0.933333 0
0.0666667 0.966667 0
0.1 0.0333333 0
0.1 0.0666667 0
0.1 0.1 0
0.1 0.133333 0
0.1 0.166667 0
0.1 0.2 0
0.1 0.233333 0
0.1 0.266667 0
0.1 0.3 0
0.1 0.333333 0
0.1 0.366667 0
0.1 0.4 0
0.1 0.433333 0
0.1 0.466667 0
0.1 0.5 0
0.1 0.533333 0
0.1 0.566667 0
0.1 0.6 0
0.1 0.633333 0
0.1 0.666667 0
0.1 0.7 0
0.1 0.733333 0
0.1 0.766667 0
0.1 0.8 0
0.1 0.833333 0
0.1 0.866667 0
0.1 0.9 0
0.1 0.933333 0
0.1 0.966667 0
0.133333 0.0333333 0
0.133333 0.0666667 0
0.133333 0.1 0
0.133333 0.133333 0
0.133333 0.166667 0
0.133333 0.2 0
0.133333 0.233333 0
0.133333 0.266667 0
0.133333 0.3 0
0.133333 0.333333 0
0.133333 0.366667 0
0.133333 0.4 0
0.133333 0.433333 0
0.133333 0.466667 0
0.133333 0.5 0
0.133333 0.533333 0
0.133333 0.566667 0
0.133333 0.6 0
0.133333 0.633333 0
0.133333 0.666667 0
0.133333 0.7 0
0.133333 0.733333 0
0.133333 0.766667 0
0.133333 0.8 0
0.133333 0.833333 0
0.133333 0.866667 0
0.133333 0.9 0
0.133333 0.933333 0
0.133333 0.966667 0
0.166667 0.0333333 0
0.166667 0.0666667 0
0.166667 0.1 0
0.166667 0.133333 0
0.166667 0.166667 0
0.166667 0.2 0
0.166667 0.233333 0
0.166667 0.266667 0
0.166667 0.3 0
0.166667 0.333333 0
0.166667 0.366667 0
0.166667 0.4 0
0.166667 0.433333 0
0.166667 0.466667 0
0.166667 0.5 0
0.166667 0.533333 0
0.166667 0.566667 0
0.166667 0.6 0
0.166667 0.633333 0
0.166667 0.666667 0
0.166667 0.7 0
0.166667 0.733333 0
0.166667 0.766667 0
0.166667 0.8 0
0.166667 0.833333 0
0.166667 0.866667 0
0.166667 0.9 0
0.166667 0.933333 0
0.166667 0.966667 0
0.2 0.0333333 0
0.2 0.0666667 0
0.2 0.1 0
0.2 0.133333 0
0.2 0.166667 0
0.2 0.2 0
0.2 0.233333 0
0.2 0.266667 0
0.2 0.3 0
0.2 0.333333 0
0.2 0.366667 0
0.2 0.4 0
0.2 0.433333 0
0.2 0.466667 0
0.2 0.5 0
0.2 0.533333 0
0.2 0.566667 0
0.2 0.6 0
0.2 0.633333 0
0.2 0.666667 0
0.2 0.7 0
0.2 0.733333 0
0.2 0.766667 0
0.2 0.8 0
0.2 0.833333 0
0.2 0.866667 0
0.2 0.9 0
0.2 0.933333 0
0.2 0.966667 0
0.233333 0.0333333 0
0.233333 0.0666667 0
0.233333 0.1 0
0.233333 0.133333 0
0.233333 0.166667 0
0.233333 0.2 0
0.233333 0.233333 0
0.233333 0.266667 0
0.233333 0.3 0
0.233333 0.333333 0
0.233333 0.366667 0
0.233333 0.4 0
0.233333 0.433333 0
0.233333 0.466667 0
0.233333 0.5 0
0.233333 0.533333 0
0.233333 0.566667 0
0.233333 0.6 0
0.233333 0.633333 0
0.233333 0.666667 0
0.233333 0.7 0
0.233333 0.733333 0
0.233333 0.766667 0
0.233333 0.8 0
0.233333 0.833333 0
0.233333 0.866667 0
0.233333 0.9 0
0.233333 0.933333 0
0.233333 0.966667 0
0.266667 0.0333333 0
0.266667 0.0666667 0
0.266667 0.1 0
0.266667 0.133333 0
0.266667 0.166667 0
0.266667 0.2 0
0.266667 0.233333 0
0.266667 0.266667 0
0.266667 0.3 0
0.266667 0.333333 0
0.266667 0.366667 0
0.266667 0.4 0
0.266667 0.433333 0
0.266667 0.466667 0
0.266667 0.5 0
0.266667 0.533333 0
0.266667 0.566667 0
0.266667 0.6 0
0.266667 0.633333 0
0.266667 0.666667 0
0.266667 0.7 0
0.266667 0.733333 0
0.266667 0.766667 0
0.266667 0.8 0
0.266667 0.833333 0
0.266667 0.866667 0
0.266667 0.9 0
0.266667 0.933333 0
0.266667 0.966667 0
0.3 0.0333333 0
0.3 0.0666667 0
0.3 0.1 0
0.3 0.133333 0
0.3 0.166667 0
0.3 0.2 0
0.3 0.233333 0
0.3 0.266667 0
0.3 0.3 0
0.3 0.333333 0
0.3 0.366667 0
0.3 0.4 0
0.3 0.433333 0
0.3 0.466667 0
0.3 0.5 0
0.3 0.533333 0
0.3 0.566667 0
0.3 0.6 0
0.3 0.633333 0
0.3 0.666667 0
0.3 0.7 0
0.3 0.733333 0
0.3 0.766667 0
0.3 0.8 0
0.3 0.833333 0
0.3 0.866667 0
0.3 0.9 0
0.3 0.933333 0
0.3 0.966667 0
0.333333 0.0333333 0
0.333333 0.0666667 0
0.333333 0.1 0
0.333333 0.133333 0
0.333333 0.166667 0
0.333333 0.2 0
0.333333 0.233333 0
0.333333 0.266667 0
0.333333 0.3 0
0.333333 0.333333 0
0.333333 0.366667 0
0.333333 0.4 0
0.333333 0.433333 0
0.333333 0.466667 0
0.333333 0.5 0
0.333333 0.533333 0
0.333333 0.566667 0
0.333333 0.6 0
0.333333 0.633333 0
0.333333 0.666667 0
0.333333 0.7 0
0.333333 0.733333 0
0.333333 0.766667 0
0.333333 0.8 0
0.333333 0.833333 0
0.333333 0.866667 0
0.333333 0.9 0
0.333333 0.933333 0
0.333333 0.966667 0
0.366667 0.0333333 0
0.366667 0.0666667 0
0.366667 0.1 0
0.366667 0.133333 0
0.366667 0.166667 0
0.366667 0.2 0
0.366667 0.233333 0
0.366667 0.266667 0
0.366667 0.3 0
0.366667 0.333333 0
0.366667 0.366667 0
0.366667 0.4 0
0.366667 0.433333 0
0.366667 0.466667 0
0.366667 0.5 0
0.366667 0.533333 0
0.366667 0.566667 0
0.366667 0.6 0
0.366667 0.633333 0
0.366667 0.666667 0
0.366667 0.7 0
0.366667 0.733333 0
0.366667 0.766667 0
0.366667 0.8 0
0.366667 0.833333 0
0.366667 0.866667 0
0.366667 0.9 0
0.366667 0.933333 0
0.366667 0.966667 0
0.4 0.0333333 0
0.4 0.0666667 0
0.4 0.1 0
0.4 0.133333 0
0.4 0.166667 0
0.4 0.2 0
0.4 0.233333 0
0.4 0.266667 0
0.4 0.3 0
0.4 0.333333 0
0.4 0.366667 0
0.4 0.4 0
0.4 0.433333 0
0.4 0.466667 0
0.4 0.5 0
0.4 0.533333 0
0.4 0.566667 0
0.4 0.6 0
0.4 0.633333 0
0.4 0.666667 0
0.4 0.7 0
0.4 0.733333 0
0.4 0.766667 0
0.4 0.8 0
0.4 0.833333 0
0.4 0.866667 0
0.4 0.9 0
0.4 0.933333 0
0.4 0.966667 0
0.433333 0.0333333 0
0.433333 0.0666667 0
0.433333 0.1 0
0.433333 0.133333 0
0.433333 0.166667 0
0.433333 0.2 0
0.433333 0.233333 0
0.433333 0.266667 0
0.433333 0.3 0
0.433333 0.333333 0
0.433333 0.366667 0
0.433333 0.4 0
0.433333 0.433333 0
0.433333 0.466667 0
0.433333 0.5 0
0.433333 0.533333 0
0.433333 0.566667 0
0.433333 0.6 0
0.433333 0.633333 0
0.433333 0.666667 0
0.433333 0.7 0
0.433333 0.733333 0
0.433333 0.766667 0
0.433333 0.8 0
0.433333 0.833333 0
0.433333 0.866667 0
0.433333 0.9 0
0.433333 0.933333 0
0.433333 0.966667 0
0.466667 0.0333333 0
0.466667 0.0666667 0
0.466667 0.1 0
0.466667 0.133333 0
0.466667 0.166667 0
0.466667 0.2 0
0.466667 0.233333 0
0.466667 0.266667 0
0.466667 0.3 0
0.466667 0.333333 0
0.466667 0.366667 0
0.466667 0.4 0
0.466667 0.433333 0
0.466667 0.466667 0
0.466667 0.5 0
0.466667 0.533333 0
0.466667 0.566667 0
0.466667 0.6 0
0.466667 0.633333 0
0.466667 0.666667 0
0.466667 0.7 0
0.466667 0.733333 0
0.466667 0.766667 0
0.466667 0.8 0
0.466667 0.833333 0
0.466667 0.866667 0
0.466667 0.9 0
0.466667 0.933333 0
0.466667 0.966667 0
0.5 0.0333333 0
0.5 0.0666667 0
0.5 0.1 0
0.5 0.133333 0
0.5 0.166667 0
0.5 0.2 0
0.5 0.233333 0
0.5 0.266667 0
0.5 0.3 0
0.5 0.333333 0
0.5 0.366667 0
0.5 0.4 0
0.5 0.433333 0
0.5 0.466667 0
0.5 0.5 0
0.5 0.533333 0
0.5 0.566667 0
0.5 0.6 0
0.5 0.633333 0
0.5 0.666667 0
0.5 0.7 0
0.5 0.733333 0
0.5 0.766667 0
0.5 0.8 0
0.5 0.833333 0
0.5 0.866667 0
0.5 0.9 0
0.5 0.933333 0
0.5 0.966667 0
0.533333 0.0333333 0
0.533333 0.0666667 0
0.533333 0.1 0
0.533333 0.133333 0
0.533333 0.166667 0
0.533333 0.2 0
0.533333 0.233333 0
0.533333 0.266667 0
0.533333 0.3 0
0.533333 0.333333 0
0.533333 0.366667 0
0.533333 0.4 0
0.533333 0.433333 0
0.533333 0.466667 0
0.533333 0.5 0
0.533333 0.533333 0
0.533333 0.566667 0
0.533333 0.6 0
0.533333 0.633333 0
0.533333 0.666667 0
0.533333 0.7 0
0.533333 0.733333 0
0.533333 0.766667 0
0.533333 0.8 0
0.533333 0.833333 0
0.533333 0.866667 0
0.533333 0.9 0
0.533333 0.933333 0
0.533333 0.966667 0
0.566667 0.0333333 0
0.566667 0.0666667 0
0.566667 0.1 0
0.566667 0.133333 0
0.566667 0.166667 0
0.566667 0.2 0
0.566667 0.233333 0
0.566667 0.266667 0
0.566667 0.3 0
0.566667 0.333333 0
0.566667 0.366667 0
0.566667 0.4 0
0.566667 0.433333 0
0.566667 0.466667 0
0.566667 0.5 0
0.566667 0.533333 0
0.566667 0.566667 0
0.566667 0.6 0
0.566667 0.633333 0
0.566667 0.666667 0
0.566667 0.7 0
0.566667 0.733333 0
0.566667 0.766667 0
0.566667 0.8 0
0.566667 0.833333 0
0.566667 0.866667 0
0.566667 0.9 0
0.566667 0.933333 0
0.566667 0.966667 0
0.6 0.0333333 0
0.6 0.0666667 0
0.6 0.1 0
0.6 0.133333 0
[...]
CELL_DATA 900
SCALARS Temperatura double 1
LOOKUP_TABLE default
0.221498
0.200346
0.140995
0.0910352
0.0489962
0.0138274
-0.0152644
-0.0388993
-0.0575789
-0.071724
-0.0817059
-0.0878766
-0.0906041
-0.0903256
-0.0876488
-0.0837476
-0.0787482
-0.0731893
-0.0664838
-0.0587188
-0.0501117
-0.0409058
-0.0313321
-0.0215646
-0.0116231
-0.00109355
0.0118964
0.0346424
0.101705
0.360616
0.450042
0.359982
0.164943
-0.0015692
-0.143525
-0.263727
-0.364332
-0.447051
-0.513277
-0.564188
-0.600826
-0.624189
-0.635332
-0.635526
-0.626582
-0.613229
-0.594619
-0.569908
-0.539182
-0.503166
-0.462613
-0.418238
-0.37061
-0.319917
-0.265457
-0.204396
-0.12843
-0.0154616
0.194463
0.617636
0.734018
0.572644
0.238397
-0.0480383
-0.292656
-0.4999
-0.673297
-0.81569
-0.929414
-1.01645
-1.07854
-1.11738
-1.13473
-1.13264
-1.11384
-1.08788
-1.05104
-1.0026
-0.943398
-0.874583
-0.797384
-0.712946
-0.622069
-0.524717
-0.419007
-0.299005
-0.149796
0.0622649
0.409213
0.930334
1.0136
0.783819
0.316361
-0.0862118
-0.430992
-0.72361
-0.96869
-1.17002
-1.33075
-1.45353
-1.54073
-1.59461
-1.61753
-1.61219
-1.58196
-1.54237
-1.48577
-1.4118
-1.3218
-1.21743
-1.10046
-0.972405
-0.834209
-0.685436
-0.522877
-0.337813
-0.110807
0.197071
0.659702
1.23174
1.27762
0.976823
0.380357
-0.135168
-0.577904
-0.954438
-1.27027
-1.52995
-1.73727
-1.89542
-2.00727
-2.07552
-2.10301
-2.09297
-2.04938
-1.99566
-1.91787
-1.81611
-1.69249
-1.54935
-1.38899
-1.21341
-1.02371
-0.819174
-0.595677
-0.342819
-0.0389876
0.356552
0.916897
1.51773
1.52941
1.1567
0.435104
-0.190412
-0.729018
-1.18811
-1.57389
-1.8915
-2.1452
-2.3386
-2.47488
-2.55707
-2.58833
-2.57229
-2.51388
-2.44624
-2.3458
-2.21434
-2.05477
-1.87021
-1.66365
-1.43765
-1.19368
-0.931076
-0.645392
-0.325492
0.0512366
0.526436
1.1723
1.7912
1.7711
1.32711
0.484532
-0.247894
-0.880218
-1.4205
-1.87547
-2.25068
-2.55073
-2.77945
-2.94019
-3.03612
-3.07057
-3.04743
-2.97471
-2.89226
-2.768
-2.60534
-2.40807
-2.18016
-1.92548
-1.64733
-1.34782
-1.02669
-0.679601
-0.295125
0.150062
0.698473
1.42142
2.05292
2.00387
1.49074
0.5319
-0.303971
-1.0276
-1.64752
-2.17084
-2.60336
-2.94981
-3.2141
-3.39956
-3.50935
-3.54672
-3.51555
-3.42994
-3.33183
-3.18317
-2.98838
-2.75231
-2.47995
-2.17619
-1.84533
-1.4903
-1.11149
-0.704848
-0.258732
0.250956
0.867597
1.66154
2.30292
2.22806
1.64935
0.579764
-0.355477
-1.16753
-1.86522
-2.45585
-2.94528
-3.33823
-3.63847
-3.84918
-3.97325
-4.01369
-3.97409
-3.87712
-3.76343
-3.59022
-3.36302
-3.0878
-2.77073
-2.4179
-2.03474
-1.62516
-1.19029
-0.726363
-0.221427
0.349448
1.03039
1.8907
2.54085
2.44327
1.8039
0.630049
-0.399691
-1.29664
-2.06974
-2.72626
-3.272
-3.71147
-4.04815
-4.28483
-4.42399
-4.46816
-4.42042
-4.3142
-4.18545
-3.98816
-3.72896
-3.41505
-3.05388
-2.65284
-2.21858
-1.75607
-1.26714
-0.748222
-0.186993
0.442296
1.18432
2.10734
2.76609
2.64849
1.95466
0.68409
-0.434321
-1.41182
-2.25725
-2.97775
-3.57884
-4.06467
-4.43826
-4.70186
-4.85731
-4.90645
-4.85163
-4.73865
-4.59603
-4.37586
-4.0859
-3.73461
-3.33078
-2.88315
-2.39961
-1.88619
-1.34534
-0.773636
-0.158342
0.526992
1.32738
2.31011
2.97791
2.84217
2.10124
0.742664
-0.457503
-1.51021
-2.42407
-3.20591
-3.86086
-4.39256
-4.80344
-5.09502
-5.26834
-5.32437
-5.26445
-5.14747
-4.99294
-4.75194
-4.43336
-4.04689
-3.60266
-3.11075
-2.58027
-2.01822
-1.42765
-0.805214
-0.137833
0.601475
1.45787
2.49778
3.17554
3.02235
2.24268
0.805994
-0.467826
-1.58926
-2.5666
-3.40627
-4.1129
-4.68951
-5.1378
-5.45845
-5.65156
-5.71702
-5.65502
-5.53701
-5.37339
-5.11458
-4.7705
-4.352
-3.87048
-3.33727
-2.76265
-2.15449
-1.5164
-0.845171
-0.127482
0.663966
1.57431
2.66921
3.35816
3.18682
2.37748
0.873738
-0.464373
-1.64681
-2.68148
-3.57439
-4.3296
-4.94947
-5.43488
-5.78557
-6.00059
-6.07868
-6.01867
-5.90279
-5.73384
-5.46127
-5.09588
-4.64955
-4.13479
-3.564
-2.94851
-2.29701
-1.61368
-0.895491
-0.129106
0.712856
1.67533
2.82331
3.52495
3.33378
2.50541
0.947964
-0.442439
-1.67535
-2.75842
-3.69722
-4.49529
-5.1543
-5.6743
-6.05414
-6.29178
-6.38477
-6.33059
-6.21954
-6.04992
-5.76911
-5.38857
-4.92092
-4.37948
-3.77748
-3.12702
-2.43747
-1.71341
-0.952124
-0.140348
0.749168
1.76104
2.95963
3.67528
3.45936
2.61968
1.02063
-0.411217
-1.68522
-2.80892
-3.78761
-4.62433
-5.32007
-5.87411
-6.28438
-6.54782
-6.66083
-6.6196
-6.51752
-6.35266
-6.06951
-5.67983
-5.19659
-4.63356
-4.00454
-3.3222
-2.5965
-1.83264
-1.02841
-0.171086
0.766037
1.82695
3.07541
3.8078
3.5593
2.7164
1.08912
-0.372041
-1.6765
-2.83188
-3.84331
-4.71343
-5.44263
-6.02947
-6.47103
-6.76332
-6.9017
-6.88123
-6.79259
-6.63851
-6.35971
-5.96776
-5.47558
-4.897
-4.24601
-3.53562
-2.77633
-1.97401
-1.12729
-0.224385
0.760408
1.87013
3.16789
3.92033
3.629
2.79525
1.15759
-0.316378
-1.63627
-2.80996
-3.84254
-4.73633
-5.49128
-6.10538
-6.57503
-6.89546
-7.06118
-7.06634
-6.99446
-6.85759
-6.59118
-6.20624
-5.71516
-5.13133
-4.46844
-3.73944
-2.95496
-2.12135
-1.23801
-0.29423
0.734458
1.88992
3.23454
4.00973
3.66167
2.84903
1.21951
-0.250372
-1.57049
-2.749
-3.79104
-4.69876
-5.4718
-6.10773
-6.60244
-6.95063
-7.14613
-7.18234
-7.1314
-7.01833
-6.77248
-6.40391
-5.924
-5.3452
-4.68043
-3.94206
-3.14055
-2.28246
-1.36792
-0.387412
0.681989
1.88064
3.27003
4.07157
3.65123
2.87187
1.27073
-0.176598
-1.48016
-2.64842
-3.68662
-4.59686
-5.37861
-6.02922
-6.54433
-6.91828
-7.14453
-7.21597
-7.19023
-7.10721
-6.89022
-6.54794
-6.09029
-5.52827
-4.87343
-4.13709
-3.32899
-2.45553
-1.51735
-0.506113
0.599376
1.83762
3.26886
4.10073
3.59193
2.85772
1.30653
-0.0983901
-1.36721
-2.50865
-3.5281
-4.42772
-5.20699
-5.86322
-6.39204
-6.78773
-7.04367
-7.1526
-7.15596
-7.10831
-6.92806
-6.62215
-6.19857
-5.66633
-5.0351
-4.3145
-3.51298
-2.6362
-1.68483
-0.651484
0.483278
1.75581
3.22471
4.09103
3.47836
2.80044
1.32179
-0.0197897
-1.2345
-2.33122
-3.31555
-4.18975
-4.95346
-5.60419
-6.13777
-6.54876
-6.83077
-6.97676
-7.01217
-7.00346
-6.86666
-6.60662
-6.22901
-5.74042
-5.14809
-4.45933
-3.6806
-2.81609
-1.86581
-0.822694
0.331217
1.63001
3.13022
4.03487
3.30571
2.69398
1.3111
0.0545287
-1.08582
-2.11892
-3.05049
-3.88298
-4.61631
-5.24834
-5.77537
-6.19247
-6.49385
-6.67312
-6.7417
-6.77285
-6.68404
-6.47775
-6.15713
-5.72602
-5.18884
-4.55006
-3.81344
-2.98088
-2.05071
-1.01528
0.142728
1.45545
2.97708
3.92289
3.06988
2.53261
1.26891
0.119348
-0.925935
-1.87584
-2.73613
-3.50948
-4.19611
-4.79437
-5.30119
-5.71241
-6.0231
-6.22787
-6.32763
-6.39619
-6.35665
-6.2091
-5.95417
-5.59296
-5.12688
-4.55724
-3.88458
-3.10769
-2.22221
-1.21851
-0.0785236
1.22908
2.75643
3.74362
2.76768
2.31105
1.1897
0.16903
-0.760466
-1.60742
-2.37754
-3.0736
-3.69617
-4.24414
-4.71513
-5.10588
-5.41253
-5.63081
-5.75722
-5.85505
-5.86167
-5.77341
-5.58878
-5.30647
-4.92512
-4.44293
-3.85702
-3.16265
-2.35184
-1.41161
-0.321217
0.952063
2.45998
3.48352
2.39693
2.02464
1.06813
0.197651
-0.595823
-1.32045
-1.98168
-2.58227
-3.12305
-3.60337
-4.02158
-4.37535
-4.66192
-4.87833
-5.02157
-5.13661
-5.18069
-5.14637
-5.03064
-4.83048
-4.54244
-4.16219
-3.68392
-3.09945
-2.39699
-1.55934
-0.561256
0.634352
2.08264
3.12759
1.95641
1.66933
0.899131
0.19919
-0.439038
-1.02296
-1.55746
-2.04508
-2.48674
-2.88215
-3.23029
-3.52964
-3.77851
-3.97526
-4.11844
-4.2377
-4.30514
-4.31296
-4.25743
-4.13484
-3.94081
-3.6697
-3.31397
-2.86314
-2.30251
-1.61111
-0.758768
0.298271
1.62417
2.65962
1.44576
1.24137
0.678016
0.167614
-0.297775
-0.724323
-1.11595
-1.4747
-1.80134
-2.0958
-2.35749
-2.58557
-2.7792
-2.93789
-3.06188
-3.1689
-3.24243
-3.27518
-3.26406
-3.20591
-3.0968
-2.93147
-2.7026
-2.39976
-2.00778
-1.50435
-0.856391
-0.014011
1.10063
2.07225
0.896698
0.783809
0.450416
0.149185
-0.125424
-0.377452
-0.609379
-0.822487
-1.01727
-1.19372
-1.35154
-1.49032
-1.60978
-1.71007
-1.79245
-1.86521
-1.92152
-1.95594
-1.96586
-1.94965
-1.90499
-1.8286
-1.71571
-1.55919
-1.34796
-1.06438
-0.679801
-0.14743
0.61193
1.38128
0.438141
0.418883
0.321408
0.235932
0.160221
0.0926072
0.0320416
-0.0220814
-0.0700734
-0.112059
-0.148053
-0.178037
-0.202036
-0.220244
-0.233259
-0.243008
-0.248751
-0.251585
-0.249078
-0.240783
-0.226429
-0.20559
-0.177529
-0.140955
-0.0935599
-0.0308864
0.0567867
0.193999
0.451616
0.89782
