# vtk DataFile Version 3.0
Malha 2D com triângulos e temperatura
ASCII
DATASET UNSTRUCTURED_GRID

POINTS 900 double
0 0 0
1 0 0
1 1 0
0 1 0
0.0344828 0 0
0.0689655 0 0
0.103448 0 0
0.137931 0 0
0.172414 0 0
0.206897 0 0
0.241379 0 0
0.275862 0 0
0.310345 0 0
0.344828 0 0
0.37931 0 0
0.413793 0 0
0.448276 0 0
0.482759 0 0
0.517241 0 0
0.551724 0 0
0.586207 0 0
0.62069 0 0
0.655172 0 0
0.689655 0 0
0.724138 0 0
0.758621 0 0
0.793103 0 0
0.827586 0 0
0.862069 0 0
0.896552 0 0
0.931034 0 0
0.965517 0 0
1 0.0344828 0
1 0.0689655 0
1 0.103448 0
1 0.137931 0
1 0.172414 0
1 0.206897 0
1 0.241379 0
1 0.275862 0
1 0.310345 0
1 0.344828 0
1 0.37931 0
1 0.413793 0
1 0.448276 0
1 0.482759 0
1 0.517241 0
1 0.551724 0
1 0.586207 0
1 0.62069 0
1 0.655172 0
1 0.689655 0
1 0.724138 0
1 0.758621 0
1 0.793103 0
1 0.827586 0
1 0.862069 0
1 0.896552 0
1 0.931034 0
1 0.965517 0
0.965517 1 0
0.931034 1 0
0.896552 1 0
0.862069 1 0
0.827586 1 0
0.793103 1 0
0.758621 1 0
0.724138 1 0
0.689655 1 0
0.655172 1 0
0.62069 1 0
0.586207 1 0
0.551724 1 0
0.517241 1 0
0.482759 1 0
0.448276 1 0
0.413793 1 0
0.37931 1 0
0.344828 1 0
0.310345 1 0
0.275862 1 0
0.241379 1 0
0.206897 1 0
0.172414 1 0
0.137931 1 0
0.103448 1 0
0.0689655 1 0
0.0344828 1 0
0 0.965517 0
0 0.931034 0
0 0.896552 0
0 0.862069 0
0 0.827586 0
0 0.793103 0
0 0.758621 0
0 0.724138 0
0 0.689655 0
0 0.655172 0
0 0.62069 0
0 0.586207 0
0 0.551724 0
0 0.517241 0
0 0.482759 0
0 0.448276 0
0 0.413793 0
0 0.37931 0
0 0.344828 0
0 0.310345 0
0 0.275862 0
0 0.241379 0
0 0.206897 0
0 0.172414 0
0 0.137931 0
0 0.103448 0
0 0.0689655 0
0 0.0344828 0
0.0344828 0.965517 0
0.0344828 0.931034 0
0.0344828 0.896552 0
0.0344828 0.862069 0
0.0344828 0.827586 0
0.0344828 0.793103 0
0.0344828 0.758621 0
0.0344828 0.724138 0
0.0344828 0.689655 0
0.0344828 0.655172 0
0.0344828 0.62069 0
0.0344828 0.586207 0
0.0344828 0.551724 0
0.0344828 0.517241 0
0.0344828 0.482759 0
0.0344828 0.448276 0
0.0344828 0.413793 0
0.0344828 0.37931 0
0.0344828 0.344828 0
0.0344828 0.310345 0
0.0344828 0.275862 0
0.0344828 0.241379 0
0.0344828 0.206897 0
0.0344828 0.172414 0
0.0344828 0.137931 0
0.0344828 0.103448 0
0.0344828 0.0689655 0
0.0344828 0.0344828 0
0.0689655 0.965517 0
0.0689655 0.931034 0
0.0689655 0.896552 0
0.0689655 0.862069 0
0.0689655 0.827586 0
0.0689655 0.793103 0
0.0689655 0.758621 0
0.0689655 0.724138 0
0.0689655 0.689655 0
0.0689655 0.655172 0
0.0689655 0.62069 0
0.0689655 0.586207 0
0.0689655 0.551724 0
0.0689655 0.517241 0
0.0689655 0.482759 0
0.0689655 0.448276 0
0.0689655 0.413793 0
0.0689655 0.37931 0
0.0689655 0.344828 0
0.0689655 0.310345 0
0.0689655 0.275862 0
0.0689655 0.241379 0
0.0689655 0.206897 0
0.0689655 0.172414 0
0.0689655 0.137931 0
0.0689655 0.103448 0
0.0689655 0.0689655 0
0.0689655 0.0344828 0
0.103448 0.965517 0
0.103448 0.931034 0
0.103448 0.896552 0
0.103448 0.862069 0
0.103448 0.827586 0
0.103448 0.793103 0
0.103448 0.758621 0
0.103448 0.724138 0
0.103448 0.689655 0
0.103448 0.655172 0
0.103448 0.62069 0
0.103448 0.586207 0
0.103448 0.551724 0
0.103448 0.517241 0
0.103448 0.482759 0
0.103448 0.448276 0
0.103448 0.413793 0
0.103448 0.37931 0
0.103448 0.344828 0
0.103448 0.310345 0
0.103448 0.275862 0
0.103448 0.241379 0
0.103448 0.206897 0
0.103448 0.172414 0
0.103448 0.137931 0
0.103448 0.103448 0
0.103448 0.0689655 0
0.103448 0.0344828 0
0.137931 0.965517 0
0.137931 0.931034 0
0.137931 0.896552 0
0.137931 0.862069 0
0.137931 0.827586 0
0.137931 0.793103 0
0.137931 0.758621 0
0.137931 0.724138 0
0.137931 0.689655 0
0.137931 0.655172 0
0.137931 0.62069 0
0.137931 0.586207 0
0.137931 0.551724 0
0.137931 0.517241 0
0.137931 0.482759 0
0.137931 0.448276 0
0.137931 0.413793 0
0.137931 0.37931 0
0.137931 0.344828 0
0.137931 0.310345 0
0.137931 0.275862 0
0.137931 0.241379 0
0.137931 0.206897 0
0.137931 0.172414 0
0.137931 0.137931 0
0.137931 0.103448 0
0.137931 0.0689655 0
0.137931 0.0344828 0
0.172414 0.965517 0
0.172414 0.931034 0
0.172414 0.896552 0
0.172414 0.862069 0
0.172414 0.827586 0
0.172414 0.793103 0
0.172414 0.758621 0
0.172414 0.724138 0
0.172414 0.689655 0
0.172414 0.655172 0
0.172414 0.62069 0
0.172414 0.586207 0
0.172414 0.551724 0
0.172414 0.517241 0
0.172414 0.482759 0
0.172414 0.448276 0
0.172414 0.413793 0
0.172414 0.37931 0
0.172414 0.344828 0
0.172414 0.310345 0
0.172414 0.275862 0
0.172414 0.241379 0
0.172414 0.206897 0
0.172414 0.172414 0
0.172414 0.137931 0
0.172414 0.103448 0
0.172414 0.0689655 0
0.172414 0.0344828 0
0.206897 0.965517 0
0.206897 0.931034 0
0.206897 0.896552 0
0.206897 0.862069 0
0.206897 0.827586 0
0.206897 0.793103 0
0.206897 0.758621 0
0.206897 0.724138 0
0.206897 0.689655 0
0.206897 0.655172 0
0.206897 0.62069 0
0.206897 0.586207 0
0.206897 0.551724 0
0.206897 0.517241 0
0.206897 0.482759 0
0.206897 0.448276 0
0.206897 0.413793 0
0.206897 0.37931 0
0.206897 0.344828 0
0.206897 0.310345 0
0.206897 0.275862 0
0.206897 0.241379 0
0.206897 0.206897 0
0.206897 0.172414 0
0.206897 0.137931 0
0.206897 0.103448 0
0.206897 0.0689655 0
0.206897 0.0344828 0
0.241379 0.965517 0
0.241379 0.931034 0
0.241379 0.896552 0
0.241379 0.862069 0
0.241379 0.827586 0
0.241379 0.793103 0
0.241379 0.758621 0
0.241379 0.724138 0
0.241379 0.689655 0
0.241379 0.655172 0
0.241379 0.62069 0
0.241379 0.586207 0
0.241379 0.551724 0
0.241379 0.517241 0
0.241379 0.482759 0
0.241379 0.448276 0
0.241379 0.413793 0
0.241379 0.37931 0
0.241379 0.344828 0
0.241379 0.310345 0
0.241379 0.275862 0
0.241379 0.241379 0
0.241379 0.206897 0
0.241379 0.172414 0
0.241379 0.137931 0
0.241379 0.103448 0
0.241379 0.0689655 0
0.241379 0.0344828 0
0.275862 0.965517 0
0.275862 0.931034 0
0.275862 0.896552 0
0.275862 0.862069 0
0.275862 0.827586 0
0.275862 0.793103 0
0.275862 0.758621 0
0.275862 0.724138 0
0.275862 0.689655 0
0.275862 0.655172 0
0.275862 0.62069 0
0.275862 0.586207 0
0.275862 0.551724 0
0.275862 0.517241 0
0.275862 0.482759 0
0.275862 0.448276 0
0.275862 0.413793 0
0.275862 0.37931 0
0.275862 0.344828 0
0.275862 0.310345 0
0.275862 0.275862 0
0.275862 0.241379 0
0.275862 0.206897 0
0.275862 0.172414 0
0.275862 0.137931 0
0.275862 0.103448 0
0.275862 0.0689655 0
0.275862 0.0344828 0
0.310345 0.965517 0
0.310345 0.931034 0
0.310345 0.896552 0
0.310345 0.862069 0
0.310345 0.827586 0
0.310345 0.793103 0
0.310345 0.758621 0
0.310345 0.724138 0
0.310345 0.689655 0
0.310345 0.655172 0
0.310345 0.62069 0
0.310345 0.586207 0
0.310345 0.551724 0
0.310345 0.517241 0
0.310345 0.482759 0
0.310345 0.448276 0
0.310345 0.413793 0
0.310345 0.37931 0
0.310345 0.344828 0
0.310345 0.310345 0
0.310345 0.275862 0
0.310345 0.241379 0
0.310345 0.206897 0
0.310345 0.172414 0
0.310345 0.137931 0
0.310345 0.103448 0
0.310345 0.0689655 0
0.310345 0.0344828 0
0.344828 0.965517 0
0.344828 0.931034 0
0.344828 0.896552 0
0.344828 0.862069 0
0.344828 0.827586 0
0.344828 0.793103 0
0.344828 0.758621 0
0.344828 0.724138 0
0.344828 0.689655 0
0.344828 0.655172 0
0.344828 0.62069 0
0.344828 0.586207 0
0.344828 0.551724 0
0.344828 0.517241 0
0.344828 0.482759 0
0.344828 0.448276 0
0.344828 0.413793 0
0.344828 0.37931 0
0.344828 0.344828 0
0.344828 0.310345 0
0.344828 0.275862 0
0.344828 0.241379 0
0.344828 0.206897 0
0.344828 0.172414 0
0.344828 0.137931 0
0.344828 0.103448 0
0.344828 0.0689655 0
0.344828 0.0344828 0
0.37931 0.965517 0
0.37931 0.931034 0
0.37931 0.896552 0
0.37931 0.862069 0
0.37931 0.827586 0
0.37931 0.793103 0
0.37931 0.758621 0
0.37931 0.724138 0
0.37931 0.689655 0
0.37931 0.655172 0
0.37931 0.62069 0
0.37931 0.586207 0
0.37931 0.551724 0
0.37931 0.517241 0
0.37931 0.482759 0
0.37931 0.448276 0
0.37931 0.413793 0
0.37931 0.37931 0
0.37931 0.344828 0
0.37931 0.310345 0
0.37931 0.275862 0
0.37931 0.241379 0
0.37931 0.206897 0
0.37931 0.172414 0
0.37931 0.137931 0
0.37931 0.103448 0
0.37931 0.0689655 0
0.37931 0.0344828 0
0.413793 0.965517 0
0.413793 0.931034 0
0.413793 0.896552 0
0.413793 0.862069 0
0.413793 0.827586 0
0.413793 0.793103 0
0.413793 0.758621 0
0.413793 0.724138 0
0.413793 0.689655 0
0.413793 0.655172 0
0.413793 0.62069 0
0.413793 0.586207 0
0.413793 0.551724 0
0.413793 0.517241 0
0.413793 0.482759 0
0.413793 0.448276 0
0.413793 0.413793 0
0.413793 0.37931 0
0.413793 0.344828 0
0.413793 0.310345 0
0.413793 0.275862 0
0.413793 0.241379 0
0.413793 0.206897 0
0.413793 0.172414 0
0.413793 0.137931 0
0.413793 0.103448 0
0.413793 0.0689655 0
0.413793 0.0344828 0
0.448276 0.965517 0
0.448276 0.931034 0
0.448276 0.896552 0
0.448276 0.862069 0
0.448276 0.827586 0
0.448276 0.793103 0
0.448276 0.758621 0
0.448276 0.724138 0
0.448276 0.689655 0
0.448276 0.655172 0
0.448276 0.62069 0
0.448276 0.586207 0
0.448276 0.551724 0
0.448276 0.517241 0
0.448276 0.482759 0
0.448276 0.448276 0
0.448276 0.413793 0
0.448276 0.37931 0
0.448276 0.344828 0
0.448276 0.310345 0
0.448276 0.275862 0
0.448276 0.241379 0
0.448276 0.206897 0
0.448276 0.172414 0
0.448276 0.137931 0
0.448276 0.103448 0
0.448276 0.0689655 0
0.448276 0.0344828 0
0.482759 0.965517 0
0.482759 0.931034 0
0.482759 0.896552 0
0.482759 0.862069 0
0.482759 0.827586 0
0.482759 0.793103 0
0.482759 0.758621 0
0.482759 0.724138 0
0.482759 0.689655 0
0.482759 0.655172 0
0.482759 0.62069 0
0.482759 0.586207 0
0.482759 0.551724 0
0.482759 0.517241 0
0.482759 0.482759 0
0.482759 0.448276 0
0.482759 0.413793 0
0.482759 0.37931 0
0.482759 0.344828 0
0.482759 0.310345 0
0.482759 0.275862 0
0.482759 0.241379 0
0.482759 0.206897 0
0.482759 0.172414 0
0.482759 0.137931 0
0.482759 0.103448 0
0.482759 0.0689655 0
0.482759 0.0344828 0
0.517241 0.965517 0
0.517241 0.931034 0
0.517241 0.896552 0
0.517241 0.862069 0
0.517241 0.827586 0
0.517241 0.793103 0
0.517241 0.758621 0
0.517241 0.724138 0
0.517241 0.689655 0
0.517241 0.655172 0
0.517241 0.62069 0
0.517241 0.586207 0
0.517241 0.551724 0
0.517241 0.517241 0
0.517241 0.482759 0
0.517241 0.448276 0
0.517241 0.413793 0
0.517241 0.37931 0
0.517241 0.344828 0
0.517241 0.310345 0
0.517241 0.275862 0
0.517241 0.241379 0
0.517241 0.206897 0
0.517241 0.172414 0
0.517241 0.137931 0
0.517241 0.103448 0
[...]
CELL_DATA 841
SCALARS Temperatura double 1
LOOKUP_TABLE default
0.269402
0.00285022
-0.0456584
-0.0514411
-0.0467634
-0.0418404
-0.0364792
-0.0328815
-0.0293027
-0.0270716
-0.0247583
-0.0233306
-0.0217675
-0.020743
-0.019572
-0.0186888
-0.0176553
-0.0167298
-0.0156431
-0.0145374
-0.0132531
-0.0118645
-0.0102805
-0.00853947
-0.00658847
-0.00443839
-0.00203035
0.000698487
0.00312423
0.337292
-0.0324409
-0.124447
-0.137798
-0.129786
-0.116904
-0.104992
-0.0947223
-0.0865873
-0.0799413
-0.0747085
-0.0703606
-0.0667843
-0.0636326
-0.0608022
-0.0580666
-0.0553306
-0.0524409
-0.0493118
-0.0458382
-0.0419504
-0.0375811
-0.0326828
-0.0272164
-0.0211456
-0.0144183
-0.00692319
0.00158116
0.00837774
0.438994
-0.0118326
-0.165433
-0.205785
-0.204959
-0.192453
-0.177151
-0.163526
-0.151547
-0.141915
-0.13373
-0.127085
-0.121261
-0.116223
-0.111481
-0.106954
-0.102311
-0.0974501
-0.0921462
-0.0862935
-0.0797411
-0.0724
-0.0641738
-0.0549932
-0.0447811
-0.0334367
-0.0207805
-0.00646807
0.00631716
0.508239
0.0197869
-0.181856
-0.249778
-0.26294
-0.254436
-0.240417
-0.225189
-0.211921
-0.200108
-0.190433
-0.181939
-0.174771
-0.168176
-0.162134
-0.156118
-0.150034
-0.143518
-0.13644
-0.128547
-0.119707
-0.109748
-0.0985568
-0.0860088
-0.0719926
-0.0563605
-0.03889
-0.0192078
0.000156337
0.555321
0.051434
-0.184379
-0.279124
-0.306588
-0.306586
-0.295121
-0.28154
-0.267638
-0.255645
-0.244804
-0.235703
-0.227414
-0.220068
-0.212945
-0.206002
-0.198723
-0.190977
-0.182395
-0.172812
-0.161962
-0.149681
-0.135776
-0.120097
-0.102478
-0.082737
-0.0606193
-0.0357406
-0.00913414
0.589507
0.0801562
-0.180838
-0.297407
-0.341126
-0.349405
-0.343795
-0.332118
-0.320027
-0.308012
-0.29763
-0.288043
-0.279699
-0.271745
-0.264254
-0.256564
-0.248579
-0.239806
-0.230069
-0.218996
-0.206381
-0.19194
-0.175474
-0.156759
-0.1356
-0.111771
-0.085003
-0.0549114
-0.0204994
0.613813
0.105577
-0.173372
-0.309964
-0.367596
-0.386587
-0.386349
-0.379153
-0.368735
-0.35862
-0.348656
-0.339906
-0.331549
-0.323877
-0.316123
-0.308276
-0.299727
-0.290313
-0.27956
-0.26723
-0.252946
-0.236451
-0.217443
-0.19568
-0.170904
-0.142872
-0.111297
-0.0758171
-0.0331134
0.63272
0.127781
-0.164779
-0.317471
-0.389814
-0.418121
-0.425557
-0.422313
-0.415633
-0.407177
-0.39917
-0.391176
-0.383877
-0.376512
-0.369214
-0.361294
-0.352637
-0.342675
-0.331161
-0.317626
-0.301766
-0.283186
-0.261583
-0.236631
-0.208051
-0.175564
-0.138891
-0.0977035
-0.046276
0.646773
0.147742
-0.155033
-0.322775
-0.407638
-0.446858
-0.46103
-0.463743
-0.460351
-0.455222
-0.448964
-0.442957
-0.436662
-0.430457
-0.423647
-0.416204
-0.407496
-0.397292
-0.38504
-0.370406
-0.352907
-0.332175
-0.307797
-0.279428
-0.246734
-0.209425
-0.16723
-0.119881
-0.0593427
0.65869
0.165706
-0.145151
-0.325527
-0.423462
-0.472317
-0.494926
-0.502973
-0.504548
-0.502434
-0.499263
-0.495121
-0.490803
-0.485749
-0.480078
-0.473144
-0.464762
-0.454322
-0.441476
-0.425663
-0.406464
-0.383376
-0.355978
-0.323847
-0.286631
-0.244015
-0.195756
-0.141658
-0.0716671
0.668497
0.182812
-0.134652
-0.327152
-0.436719
-0.496356
-0.52668
-0.541605
-0.547789
-0.550059
-0.549821
-0.548602
-0.546232
-0.543074
-0.538566
-0.532598
-0.524544
-0.514062
-0.500535
-0.483504
-0.462388
-0.436696
-0.405913
-0.369594
-0.327338
-0.27883
-0.22385
-0.162294
-0.0825659
0.678161
0.199334
-0.123608
-0.327034
-0.448659
-0.518349
-0.557634
-0.579112
-0.591208
-0.597739
-0.601523
-0.603222
-0.603613
-0.602394
-0.599579
-0.594594
-0.58712
-0.576516
-0.562298
-0.543826
-0.52055
-0.491874
-0.457267
-0.416226
-0.368328
-0.313248
-0.250795
-0.180961
-0.0912946
0.687907
0.216573
-0.111528
-0.325578
-0.458637
-0.539174
-0.587209
-0.61637
-0.634372
-0.646215
-0.654105
-0.65956
-0.662823
-0.664126
-0.663068
-0.65937
-0.652421
-0.641715
-0.626583
-0.606427
-0.580591
-0.548475
-0.50949
-0.463114
-0.408892
-0.346492
-0.275748
-0.196735
-0.0970507
0.699324
0.235009
-0.0977936
-0.322162
-0.466915
-0.558251
-0.615874
-0.652916
-0.677758
-0.69518
-0.707988
-0.71745
-0.724186
-0.728174
-0.72921
-0.726799
-0.720411
-0.70939
-0.693089
-0.670823
-0.641938
-0.605793
-0.56179
-0.509384
-0.448104
-0.377606
-0.297729
-0.208607
-0.0989951
0.713062
0.255965
-0.0818186
-0.316363
-0.472954
-0.575551
-0.643239
-0.688911
-0.721168
-0.744913
-0.763151
-0.777208
-0.787767
-0.794776
-0.798006
-0.796899
-0.790879
-0.779233
-0.761291
-0.736346
-0.703749
-0.662861
-0.613098
-0.553911
-0.484825
-0.405466
-0.315657
-0.215535
-0.0963114
0.730373
0.280239
-0.062566
-0.307688
-0.476183
-0.590693
-0.668816
-0.723958
-0.764116
-0.794964
-0.819062
-0.838295
-0.852934
-0.863242
-0.86865
-0.868758
-0.862762
-0.850048
-0.829841
-0.801526
-0.764444
-0.718042
-0.661757
-0.595083
-0.517533
-0.428706
-0.328349
-0.216523
-0.0883163
0.752314
0.308896
-0.0394814
-0.295175
-0.476411
-0.602957
-0.692783
-0.757722
-0.807091
-0.84539
-0.876392
-0.900987
-0.920289
-0.933771
-0.941383
-0.94219
-0.935721
-0.92109
-0.897773
-0.865088
-0.822584
-0.769742
-0.706139
-0.631294
-0.544742
-0.446005
-0.334708
-0.210713
-0.0744968
0.779449
0.342915
-0.0116562
-0.278706
-0.472624
-0.612715
-0.71431
-0.79087
-0.849596
-0.89694
-0.934861
-0.965821
-0.989467
-1.00636
-1.01541
-1.01642
-1.00834
-0.990797
-0.963071
-0.924886
-0.875804
-0.815598
-0.743909
-0.660389
-0.564544
-0.455818
-0.333611
-0.197463
-0.0546928
0.812873
0.382306
0.020987
-0.257544
-0.465584
-0.619082
-0.734735
-0.822856
-0.893221
-0.949417
-0.995855
-1.03259
-1.06114
-1.0803
-1.09032
-1.08993
-1.07904
-1.05683
-1.02329
-0.978076
-0.921277
-0.852747
-0.772423
-0.67999
-0.574986
-0.456687
-0.324208
-0.176595
-0.0292692
0.851516
0.427521
0.0580779
-0.232826
-0.454827
-0.624145
-0.75357
-0.856188
-0.937724
-1.00508
-1.05905
-1.10256
-1.13432
-1.15535
-1.16406
-1.16086
-1.14474
-1.11612
-1.07472
-1.02108
-0.955323
-0.877831
-0.788617
-0.687559
-0.574105
-0.447363
-0.306034
-0.148551
0.000749463
0.895423
0.475661
0.0981116
-0.205515
-0.443326
-0.627961
-0.774403
-0.890658
-0.986329
-1.06327
-1.12626
-1.17403
-1.2087
-1.22837
-1.23414
-1.2248
-1.20136
-1.16361
-1.11269
-1.04903
-0.973611
-0.886875
-0.789228
-0.680507
-0.560147
-0.426959
-0.279192
-0.114522
0.0335769
0.939797
0.524999
0.137133
-0.179608
-0.432608
-0.635256
-0.797221
-0.930268
-1.03756
-1.12587
-1.19415
-1.24591
-1.27894
-1.29536
-1.29368
-1.2758
-1.24154
-1.19284
-1.13047
-1.05618
-0.970882
-0.875669
-0.770882
-0.656506
-0.531755
-0.395176
-0.244474
-0.0765354
0.0666565
0.981143
0.566513
0.1699
-0.159609
-0.428472
-0.646533
-0.826181
-0.971884
-1.09216
-1.18626
-1.25926
-1.30864
-1.33785
-1.34508
-1.33342
-1.30267
-1.25591
-1.19418
-1.12021
-1.03541
-0.941663
-0.839851
-0.730626
-0.613738
-0.488298
-0.352468
-0.203474
-0.0374291
0.0967593
1.0071
0.59328
0.186845
-0.152191
-0.432428
-0.664837
-0.85516
-1.01286
-1.13759
-1.23581
-1.30466
-1.3491
-1.3669
-1.36264
-1.33605
-1.29157
-1.23052
-1.1568
-1.07224
-0.979641
-0.880383
-0.775826
-0.666252
-0.551417
-0.430101
-0.300229
-0.158586
-0.000709305
0.120229
1.00694
0.58768
0.180515
-0.160499
-0.444442
-0.679332
-0.874883
-1.03145
-1.15634
-1.24641
-1.30788
-1.33803
-1.34297
-1.32219
-1.28166
-1.22283
-1.15085
-1.0679
-0.977726
-0.882082
-0.783022
-0.681259
-0.577165
-0.470106
-0.35877
-0.240839
-0.112929
0.0297339
0.133342
0.958667
0.540498
0.145269
-0.179
-0.447293
-0.670798
-0.851925
-0.998295
-1.10675
-1.18414
-1.2272
-1.2431
-1.23089
-1.19776
-1.14499
-1.07887
-1.00164
-0.917869
-0.829503
-0.739179
-0.647881
-0.556488
-0.464818
-0.372237
-0.277259
-0.177653
-0.0701143
0.0499953
0.132754
0.848154
0.440888
0.0939117
-0.183649
-0.410948
-0.596023
-0.747093
-0.861988
-0.947338
-0.999581
-1.02592
-1.02473
-1.00351
-0.962947
-0.909717
-0.84569
-0.775812
-0.701882
-0.626845
-0.551737
-0.477771
-0.405046
-0.333449
-0.262152
-0.189905
-0.114756
-0.0339316
0.0565814
0.115926
0.664278
0.3117
0.0617355
-0.128025
-0.277667
-0.398274
-0.490726
-0.561472
-0.607552
-0.635262
-0.642275
-0.635006
-0.612888
-0.581642
-0.541939
-0.498046
-0.450934
-0.403203
-0.355496
-0.308998
-0.263823
-0.220146
-0.177567
-0.135547
-0.0931495
-0.0491084
-0.00158266
0.0520367
0.0847475
0.472253
0.178581
0.0314217
-0.0604635
-0.12413
-0.172338
-0.208616
-0.235074
-0.252677
-0.261933
-0.26402
-0.259583
-0.250055
-0.236375
-0.219849
-0.201431
-0.182035
-0.162371
-0.142912
-0.124038
-0.105871
-0.0884968
-0.0717925
-0.055616
-0.0396547
-0.0235387
-0.00669462
0.0116236
0.0254907
