# vtk DataFile Version 3.0
Malha 2D com triângulos e temperatura
ASCII
DATASET UNSTRUCTURED_GRID

POINTS 900 double
0 0 0
0.01 0 0
0.01 0.01 0
0 0.01 0
0.000344828 0 0
0.000689655 0 0
0.00103448 0 0
0.00137931 0 0
0.00172414 0 0
0.00206897 0 0
0.00241379 0 0
0.00275862 0 0
0.00310345 0 0
0.00344828 0 0
0.0037931 0 0
0.00413793 0 0
0.00448276 0 0
0.00482759 0 0
0.00517241 0 0
0.00551724 0 0
0.00586207 0 0
0.0062069 0 0
0.00655172 0 0
0.00689655 0 0
0.00724138 0 0
0.00758621 0 0
0.00793103 0 0
0.00827586 0 0
0.00862069 0 0
0.00896552 0 0
0.00931034 0 0
0.00965517 0 0
0.01 0.000344828 0
0.01 0.000689655 0
0.01 0.00103448 0
0.01 0.00137931 0
0.01 0.00172414 0
0.01 0.00206897 0
0.01 0.00241379 0
0.01 0.00275862 0
0.01 0.00310345 0
0.01 0.00344828 0
0.01 0.0037931 0
0.01 0.00413793 0
0.01 0.00448276 0
0.01 0.00482759 0
0.01 0.00517241 0
0.01 0.00551724 0
0.01 0.00586207 0
0.01 0.0062069 0
0.01 0.00655172 0
0.01 0.00689655 0
0.01 0.00724138 0
0.01 0.00758621 0
0.01 0.00793103 0
0.01 0.00827586 0
0.01 0.00862069 0
0.01 0.00896552 0
0.01 0.00931034 0
0.01 0.00965517 0
0.00965517 0.01 0
0.00931034 0.01 0
0.00896552 0.01 0
0.00862069 0.01 0
0.00827586 0.01 0
0.00793103 0.01 0
0.00758621 0.01 0
0.00724138 0.01 0
0.00689655 0.01 0
0.00655172 0.01 0
0.0062069 0.01 0
0.00586207 0.01 0
0.00551724 0.01 0
0.00517241 0.01 0
0.00482759 0.01 0
0.00448276 0.01 0
0.00413793 0.01 0
0.0037931 0.01 0
0.00344828 0.01 0
0.00310345 0.01 0
0.00275862 0.01 0
0.00241379 0.01 0
0.00206897 0.01 0
0.00172414 0.01 0
0.00137931 0.01 0
0.00103448 0.01 0
0.000689655 0.01 0
0.000344828 0.01 0
0 0.00965517 0
0 0.00931034 0
0 0.00896552 0
0 0.00862069 0
0 0.00827586 0
0 0.00793103 0
0 0.00758621 0
0 0.00724138 0
0 0.00689655 0
0 0.00655172 0
0 0.0062069 0
0 0.00586207 0
0 0.00551724 0
0 0.00517241 0
0 0.00482759 0
0 0.00448276 0
0 0.00413793 0
0 0.0037931 0
0 0.00344828 0
0 0.00310345 0
0 0.00275862 0
0 0.00241379 0
0 0.00206897 0
0 0.00172414 0
0 0.00137931 0
0 0.00103448 0
0 0.000689655 0
0 0.000344828 0
0.000344828 0.00965517 0
0.000344828 0.00931034 0
0.000344828 0.00896552 0
0.000344828 0.00862069 0
0.000344828 0.00827586 0
0.000344828 0.00793103 0
0.000344828 0.00758621 0
0.000344828 0.00724138 0
0.000344828 0.00689655 0
0.000344828 0.00655172 0
0.000344828 0.0062069 0
0.000344828 0.00586207 0
0.000344828 0.00551724 0
0.000344828 0.00517241 0
0.000344828 0.00482759 0
0.000344828 0.00448276 0
0.000344828 0.00413793 0
0.000344828 0.0037931 0
0.000344828 0.00344828 0
0.000344828 0.00310345 0
0.000344828 0.00275862 0
0.000344828 0.00241379 0
0.000344828 0.00206897 0
0.000344828 0.00172414 0
0.000344828 0.00137931 0
0.000344828 0.00103448 0
0.000344828 0.000689655 0
0.000344828 0.000344828 0
0.000689655 0.00965517 0
0.000689655 0.00931034 0
0.000689655 0.00896552 0
0.000689655 0.00862069 0
0.000689655 0.00827586 0
0.000689655 0.00793103 0
0.000689655 0.00758621 0
0.000689655 0.00724138 0
0.000689655 0.00689655 0
0.000689655 0.00655172 0
0.000689655 0.0062069 0
0.000689655 0.00586207 0
0.000689655 0.00551724 0
0.000689655 0.00517241 0
0.000689655 0.00482759 0
0.000689655 0.00448276 0
0.000689655 0.00413793 0
0.000689655 0.0037931 0
0.000689655 0.00344828 0
0.000689655 0.00310345 0
0.000689655 0.00275862 0
0.000689655 0.00241379 0
0.000689655 0.00206897 0
0.000689655 0.00172414 0
0.000689655 0.00137931 0
0.000689655 0.00103448 0
0.000689655 0.000689655 0
0.000689655 0.000344828 0
0.00103448 0.00965517 0
0.00103448 0.00931034 0
0.00103448 0.00896552 0
0.00103448 0.00862069 0
0.00103448 0.00827586 0
0.00103448 0.00793103 0
0.00103448 0.00758621 0
0.00103448 0.00724138 0
0.00103448 0.00689655 0
0.00103448 0.00655172 0
0.00103448 0.0062069 0
0.00103448 0.00586207 0
0.00103448 0.00551724 0
0.00103448 0.00517241 0
0.00103448 0.00482759 0
0.00103448 0.00448276 0
0.00103448 0.00413793 0
0.00103448 0.0037931 0
0.00103448 0.00344828 0
0.00103448 0.00310345 0
0.00103448 0.00275862 0
0.00103448 0.00241379 0
0.00103448 0.00206897 0
0.00103448 0.00172414 0
0.00103448 0.00137931 0
0.00103448 0.00103448 0
0.00103448 0.000689655 0
0.00103448 0.000344828 0
0.00137931 0.00965517 0
0.00137931 0.00931034 0
0.00137931 0.00896552 0
0.00137931 0.00862069 0
0.00137931 0.00827586 0
0.00137931 0.00793103 0
0.00137931 0.00758621 0
0.00137931 0.00724138 0
0.00137931 0.00689655 0
0.00137931 0.00655172 0
0.00137931 0.0062069 0
0.00137931 0.00586207 0
0.00137931 0.00551724 0
0.00137931 0.00517241 0
0.00137931 0.00482759 0
0.00137931 0.00448276 0
0.00137931 0.00413793 0
0.00137931 0.0037931 0
0.00137931 0.00344828 0
0.00137931 0.00310345 0
0.00137931 0.00275862 0
0.00137931 0.00241379 0
0.00137931 0.00206897 0
0.00137931 0.00172414 0
0.00137931 0.00137931 0
0.00137931 0.00103448 0
0.00137931 0.000689655 0
0.00137931 0.000344828 0
0.00172414 0.00965517 0
0.00172414 0.00931034 0
0.00172414 0.00896552 0
0.00172414 0.00862069 0
0.00172414 0.00827586 0
0.00172414 0.00793103 0
0.00172414 0.00758621 0
0.00172414 0.00724138 0
0.00172414 0.00689655 0
0.00172414 0.00655172 0
0.00172414 0.0062069 0
0.00172414 0.00586207 0
0.00172414 0.00551724 0
0.00172414 0.00517241 0
0.00172414 0.00482759 0
0.00172414 0.00448276 0
0.00172414 0.00413793 0
0.00172414 0.0037931 0
0.00172414 0.00344828 0
0.00172414 0.00310345 0
0.00172414 0.00275862 0
0.00172414 0.00241379 0
0.00172414 0.00206897 0
0.00172414 0.00172414 0
0.00172414 0.00137931 0
0.00172414 0.00103448 0
0.00172414 0.000689655 0
0.00172414 0.000344828 0
0.00206897 0.00965517 0
0.00206897 0.00931034 0
0.00206897 0.00896552 0
0.00206897 0.00862069 0
0.00206897 0.00827586 0
0.00206897 0.00793103 0
0.00206897 0.00758621 0
0.00206897 0.00724138 0
0.00206897 0.00689655 0
0.00206897 0.00655172 0
0.00206897 0.0062069 0
0.00206897 0.00586207 0
0.00206897 0.00551724 0
0.00206897 0.00517241 0
0.00206897 0.00482759 0
0.00206897 0.00448276 0
0.00206897 0.00413793 0
0.00206897 0.0037931 0
0.00206897 0.00344828 0
0.00206897 0.00310345 0
0.00206897 0.00275862 0
0.00206897 0.00241379 0
0.00206897 0.00206897 0
0.00206897 0.00172414 0
0.00206897 0.00137931 0
0.00206897 0.00103448 0
0.00206897 0.000689655 0
0.00206897 0.000344828 0
0.00241379 0.00965517 0
0.00241379 0.00931034 0
0.00241379 0.00896552 0
0.00241379 0.00862069 0
0.00241379 0.00827586 0
0.00241379 0.00793103 0
0.00241379 0.00758621 0
0.00241379 0.00724138 0
0.00241379 0.00689655 0
0.00241379 0.00655172 0
0.00241379 0.0062069 0
0.00241379 0.00586207 0
0.00241379 0.00551724 0
0.00241379 0.00517241 0
0.00241379 0.00482759 0
0.00241379 0.00448276 0
0.00241379 0.00413793 0
0.00241379 0.0037931 0
0.00241379 0.00344828 0
0.00241379 0.00310345 0
0.00241379 0.00275862 0
0.00241379 0.00241379 0
0.00241379 0.00206897 0
0.00241379 0.00172414 0
0.00241379 0.00137931 0
0.00241379 0.00103448 0
0.00241379 0.000689655 0
0.00241379 0.000344828 0
0.00275862 0.00965517 0
0.00275862 0.00931034 0
0.00275862 0.00896552 0
0.00275862 0.00862069 0
0.00275862 0.00827586 0
0.00275862 0.00793103 0
0.00275862 0.00758621 0
0.00275862 0.00724138 0
0.00275862 0.00689655 0
0.00275862 0.00655172 0
0.00275862 0.0062069 0
0.00275862 0.00586207 0
0.00275862 0.00551724 0
0.00275862 0.00517241 0
0.00275862 0.00482759 0
0.00275862 0.00448276 0
0.00275862 0.00413793 0
0.00275862 0.0037931 0
0.00275862 0.00344828 0
0.00275862 0.00310345 0
0.00275862 0.00275862 0
0.00275862 0.00241379 0
0.00275862 0.00206897 0
0.00275862 0.00172414 0
0.00275862 0.00137931 0
0.00275862 0.00103448 0
0.00275862 0.000689655 0
0.00275862 0.000344828 0
0.00310345 0.00965517 0
0.00310345 0.00931034 0
0.00310345 0.00896552 0
0.00310345 0.00862069 0
0.00310345 0.00827586 0
0.00310345 0.00793103 0
0.00310345 0.00758621 0
0.00310345 0.00724138 0
0.00310345 0.00689655 0
0.00310345 0.00655172 0
0.00310345 0.0062069 0
0.00310345 0.00586207 0
0.00310345 0.00551724 0
0.00310345 0.00517241 0
0.00310345 0.00482759 0
0.00310345 0.00448276 0
0.00310345 0.00413793 0
0.00310345 0.0037931 0
0.00310345 0.00344828 0
0.00310345 0.00310345 0
0.00310345 0.00275862 0
0.00310345 0.00241379 0
0.00310345 0.00206897 0
0.00310345 0.00172414 0
0.00310345 0.00137931 0
0.00310345 0.00103448 0
0.00310345 0.000689655 0
0.00310345 0.000344828 0
0.00344828 0.00965517 0
0.00344828 0.00931034 0
0.00344828 0.00896552 0
0.00344828 0.00862069 0
0.00344828 0.00827586 0
0.00344828 0.00793103 0
0.00344828 0.00758621 0
0.00344828 0.00724138 0
0.00344828 0.00689655 0
0.00344828 0.00655172 0
0.00344828 0.0062069 0
0.00344828 0.00586207 0
0.00344828 0.00551724 0
0.00344828 0.00517241 0
0.00344828 0.00482759 0
0.00344828 0.00448276 0
0.00344828 0.00413793 0
0.00344828 0.0037931 0
0.00344828 0.00344828 0
0.00344828 0.00310345 0
0.00344828 0.00275862 0
0.00344828 0.00241379 0
0.00344828 0.00206897 0
0.00344828 0.00172414 0
0.00344828 0.00137931 0
0.00344828 0.00103448 0
0.00344828 0.000689655 0
0.00344828 0.000344828 0
0.0037931 0.00965517 0
0.0037931 0.00931034 0
0.0037931 0.00896552 0
0.0037931 0.00862069 0
0.0037931 0.00827586 0
0.0037931 0.00793103 0
0.0037931 0.00758621 0
0.0037931 0.00724138 0
0.0037931 0.00689655 0
0.0037931 0.00655172 0
0.0037931 0.0062069 0
0.0037931 0.00586207 0
0.0037931 0.00551724 0
0.0037931 0.00517241 0
0.0037931 0.00482759 0
0.0037931 0.00448276 0
0.0037931 0.00413793 0
0.0037931 0.0037931 0
0.0037931 0.00344828 0
0.0037931 0.00310345 0
0.0037931 0.00275862 0
0.0037931 0.00241379 0
0.0037931 0.00206897 0
0.0037931 0.00172414 0
0.0037931 0.00137931 0
0.0037931 0.00103448 0
0.0037931 0.000689655 0
0.0037931 0.000344828 0
0.00413793 0.00965517 0
0.00413793 0.00931034 0
0.00413793 0.00896552 0
0.00413793 0.00862069 0
0.00413793 0.00827586 0
0.00413793 0.00793103 0
0.00413793 0.00758621 0
0.00413793 0.00724138 0
0.00413793 0.00689655 0
0.00413793 0.00655172 0
0.00413793 0.0062069 0
0.00413793 0.00586207 0
0.00413793 0.00551724 0
0.00413793 0.00517241 0
0.00413793 0.00482759 0
0.00413793 0.00448276 0
0.00413793 0.00413793 0
0.00413793 0.0037931 0
0.00413793 0.00344828 0
0.00413793 0.00310345 0
0.00413793 0.00275862 0
0.00413793 0.00241379 0
0.00413793 0.00206897 0
0.00413793 0.00172414 0
[...]
CELL_DATA 841
SCALARS Temperatura double 1
LOOKUP_TABLE default
0.00255559
1.89214e-05
-0.000217688
-0.00016692
-0.000108715
-6.91046e-05
-4.45317e-05
-2.93448e-05
-1.94905e-05
-1.25426e-05
-7.1167e-06
-2.42561e-06
1.97065e-06
6.30422e-06
1.06893e-05
1.51812e-05
1.9805e-05
2.45263e-05
2.91542e-05
3.33077e-05
3.64365e-05
3.79468e-05
3.76145e-05
3.57435e-05
3.27104e-05
2.85689e-05
2.28802e-05
1.45601e-05
3.48531e-06
0.0025848
-0.000251044
-0.000546542
-0.000426942
-0.000297034
-0.000203629
-0.000141763
-0.000101067
-7.34484e-05
-5.36955e-05
-3.8634e-05
-2.63555e-05
-1.57132e-05
-5.98459e-06
3.38635e-06
1.29697e-05
2.33891e-05
3.50912e-05
4.78994e-05
6.07643e-05
7.17642e-05
7.85159e-05
8.00079e-05
7.73089e-05
7.17558e-05
6.353e-05
5.10919e-05
3.04481e-05
2.85134e-06
0.00317953
0.000172141
-0.000537702
-0.000542504
-0.000426501
-0.000318961
-0.000238153
-0.000179966
-0.000137681
-0.00010591
-8.0902e-05
-6.01746e-05
-4.21038e-05
-2.55583e-05
-9.55363e-06
7.02577e-06
2.54707e-05
4.67485e-05
7.05635e-05
9.47611e-05
0.000115247
0.000126808
0.000128108
0.000122185
0.000111536
9.67099e-05
7.54653e-05
4.13668e-05
-2.61729e-06
0.00349657
0.000618586
-0.000370145
-0.000536595
-0.000478257
-0.000385907
-0.000304524
-0.000240355
-0.000190751
-0.000151834
-0.000120333
-9.38434e-05
-7.06712e-05
-4.95385e-05
-2.92186e-05
-8.17907e-06
1.55049e-05
4.34921e-05
7.5685e-05
0.0001091
0.000137672
0.000153665
0.000155461
0.000147708
0.000133861
0.00011483
8.77257e-05
4.39028e-05
-1.15279e-05
0.00361924
0.000900033
-0.000166679
-0.000465492
-0.000475659
-0.000412236
-0.000341318
-0.00027931
-0.000228193
-0.000186241
-0.000151191
-0.000121119
-9.4552e-05
-7.02923e-05
-4.70737e-05
-2.31615e-05
3.80216e-06
3.61391e-05
7.41714e-05
0.000114413
0.000149265
0.000168936
0.000171364
0.000162393
0.000146422
0.000124725
9.38495e-05
4.33146e-05
-1.99597e-05
0.00367831
0.0010729
2.25604e-05
-0.000370867
-0.000444302
-0.000413163
-0.000357484
-0.000301965
-0.000252825
-0.000210531
-0.000173996
-0.000141956
-0.000113321
-8.71099e-05
-6.21441e-05
-3.66387e-05
-7.96772e-06
2.67474e-05
6.83826e-05
0.000113226
0.000152499
0.000174823
0.000177771
0.000168134
0.000151151
0.000128377
9.58307e-05
4.15551e-05
-2.63473e-05
0.00371131
0.00118247
0.000177061
-0.000272957
-0.000398764
-0.000398726
-0.000359748
-0.000312715
-0.000267456
-0.000226458
-0.000189813
-0.000156972
-0.000127292
-0.000100068
-7.42706e-05
-4.81482e-05
-1.89289e-05
1.66616e-05
6.00594e-05
0.000107516
0.000149273
0.000172922
0.000176101
0.000166361
0.000149545
0.00012731
9.51112e-05
3.98235e-05
-3.00024e-05
0.00373089
0.00125334
0.000294336
-0.000179972
-0.000346786
-0.000375054
-0.00035265
-0.000314793
-0.000274323
-0.000235553
-0.000199697
-0.000166913
-0.000137009
-0.000109552
-8.36711e-05
-5.7675e-05
-2.87478e-05
6.59426e-06
5.02332e-05
9.84699e-05
0.00014062
0.000164086
0.000167256
0.000158114
0.000142765
0.000122715
9.27703e-05
3.88781e-05
-3.07041e-05
0.00374242
0.00130054
0.000382215
-9.56945e-05
-0.000293521
-0.00034652
-0.000339596
-0.000310755
-0.00027531
-0.000239208
-0.000204709
-0.000172635
-0.000143201
-0.000116205
-9.08898e-05
-6.56237e-05
-3.76245e-05
-3.37358e-06
3.92341e-05
8.65196e-05
0.000126953
0.000148762
0.000151857
0.000144215
0.000131759
0.000115535
8.96027e-05
3.91842e-05
-2.84561e-05
0.00374876
0.00133262
0.000447896
-2.22459e-05
-0.000242725
-0.000316475
-0.000323269
-0.00030269
-0.000272038
-0.000238709
-0.000205918
-0.000175085
-0.000146759
-0.00012089
-9.67695e-05
-7.27899e-05
-4.6249e-05
-1.37431e-05
2.67411e-05
7.13709e-05
0.000108086
0.000127092
0.000130385
0.000125371
0.000117299
0.000106459
8.60951e-05
4.09356e-05
-2.33837e-05
0.00375161
0.00135431
0.000496529
3.93346e-05
-0.00019705
-0.000287503
-0.00030584
-0.000292361
-0.000265956
-0.000235288
-0.000204428
-0.000175309
-0.000148725
-0.000124683
-0.000102435
-8.03526e-05
-5.58282e-05
-2.57135e-05
1.15864e-05
5.17266e-05
8.31404e-05
9.90592e-05
0.000103308
0.000102224
9.99607e-05
9.58444e-05
8.23363e-05
4.39896e-05
-1.57346e-05
0.00375218
0.00136847
0.000531391
8.79005e-05
-0.000158761
-0.000261869
-0.00028929
-0.000281468
-0.000258549
-0.000230285
-0.000201486
-0.000174503
-0.000150291
-0.000128828
-0.000109248
-8.98473e-05
-6.81418e-05
-4.14005e-05
-8.80113e-06
2.46552e-05
5.01246e-05
6.42896e-05
7.09528e-05
7.52018e-05
7.99786e-05
8.35907e-05
7.7898e-05
4.77614e-05
-5.94869e-06
0.00375143
0.00137676
0.000554029
0.000121489
-0.000130621
-0.000242304
-0.000276114
-0.000272305
-0.000251967
-0.000225721
-0.000198964
-0.000174378
-0.000153025
-0.000134809
-0.000118704
-0.000102921
-8.51403e-05
-6.31482e-05
-3.69362e-05
-1.10847e-05
9.07555e-06
2.28727e-05
3.33715e-05
4.42159e-05
5.69876e-05
6.89821e-05
7.17516e-05
5.11487e-05
5.25464e-06
0.00375004
0.00137987
0.000564668
0.000138188
-0.000115998
-0.000232324
-0.000269737
-0.000268226
-0.000249486
-0.000224721
-0.000199734
-0.00017745
-0.000159024
-0.000144311
-0.000132169
-0.000120797
-0.000108107
-9.24626e-05
-7.41506e-05
-5.57501e-05
-3.94331e-05
-2.47864e-05
-9.53467e-06
8.61878e-06
2.98893e-05
5.06098e-05
6.22931e-05
5.2581e-05
1.68569e-05
0.00374844
0.00137789
0.000562845
0.000136685
-0.000117585
-0.000234761
-0.000272965
-0.000272045
-0.000253877
-0.000229897
-0.000206117
-0.000185637
-0.00016972
-0.000158247
-0.000150081
-0.000143505
-0.000136684
-0.000128268
-0.000117846
-0.00010592
-9.26511e-05
-7.6988e-05
-5.72248e-05
-3.21766e-05
-2.76117e-06
2.65754e-05
4.7538e-05
5.03029e-05
2.77427e-05
0.00374699
0.00137079
0.000548049
0.000116741
-0.000134858
-0.000248123
-0.000284021
-0.000282365
-0.0002644
-0.000241038
-0.000218089
-0.000198868
-0.000184913
-0.000176231
-0.000171787
-0.000169994
-0.00016919
-0.000167669
-0.00016414
-0.000157675
-0.000147094
-0.000130992
-0.000108082
-7.79163e-05
-4.1998e-05
-4.98056e-06
2.56338e-05
4.29518e-05
3.72049e-05
0.00374496
0.00135683
0.000519614
8.03808e-05
-0.000163803
-0.000267593
-0.000297292
-0.000292731
-0.000274069
-0.000251373
-0.000229992
-0.000212892
-0.000201457
-0.000195806
-0.000195075
-0.000197785
-0.000202248
-0.000206683
-0.000209037
-0.000207167
-0.000199208
-0.000183716
-0.000159795
-0.000127371
-8.78372e-05
-4.49527e-05
-4.19649e-06
3.01001e-05
4.50074e-05
0.00374294
0.00133858
0.000480985
3.17363e-05
-0.000200451
-0.000290686
-0.000311502
-0.000302483
-0.000282389
-0.000260125
-0.000240247
-0.000225249
-0.000216316
-0.000213591
-0.000216365
-0.000223276
-0.000232534
-0.000241956
-0.000248836
-0.000250534
-0.000245225
-0.000231805
-0.00020962
-0.000178483
-0.000138867
-9.20827e-05
-4.12583e-05
1.19361e-05
5.05502e-05
0.00373997
0.00131494
0.000431818
-2.67859e-05
-0.000241673
-0.000314798
-0.000324629
-0.0003099
-0.000287671
-0.000265535
-0.000247159
-0.000234447
-0.00022825
-0.00022858
-0.00023471
-0.000245236
-0.000258107
-0.000270653
-0.000279841
-0.000283484
-0.000280762
-0.000271214
-0.000253976
-0.000228018
-0.000192
-0.00014353
-8.38242e-05
-1.16616e-05
5.24773e-05
0.00373494
0.00128376
0.000370355
-9.31879e-05
-0.000285196
-0.000338264
-0.000335653
-0.000314382
-0.00028948
-0.00026713
-0.000250087
-0.000239644
-0.000236241
-0.000239613
-0.000248801
-0.000262101
-0.000276959
-0.000290097
-0.00029857
-0.000301859
-0.000301341
-0.000297487
-0.00028844
-0.000271318
-0.000242342
-0.000195224
-0.0001294
-4.03997e-05
4.93494e-05
0.0037263
0.00124112
0.000293047
-0.000166161
-0.000328998
-0.000359574
-0.000343674
-0.000315454
-0.00028756
-0.000264703
-0.000248735
-0.000240356
-0.000239577
-0.000245761
-0.000257548
-0.000272677
-0.000287771
-0.000298673
-0.000302571
-0.000301994
-0.000302341
-0.000305632
-0.000307745
-0.000302348
-0.000283031
-0.000241329
-0.000173715
-7.21919e-05
4.07146e-05
0.00371148
0.00118032
0.000194753
-0.0002442
-0.000370694
-0.000376947
-0.000347542
-0.000312405
-0.000281459
-0.000257902
-0.000242717
-0.000236055
-0.00023752
-0.000246099
-0.000259958
-0.000276096
-0.000289909
-0.000295339
-0.000288867
-0.000280381
-0.00027983
-0.000289802
-0.000304064
-0.000312717
-0.000306078
-0.000274307
-0.000210228
-0.000102195
2.79506e-05
0.00368609
0.00109029
6.94942e-05
-0.000324556
-0.000407119
-0.000388097
-0.000345656
-0.000304107
-0.000270361
-0.00024608
-0.000231415
-0.00022602
-0.000229159
-0.000239508
-0.000254786
-0.000271169
-0.000282353
-0.000279502
-0.000262285
-0.000246324
-0.000243472
-0.000256425
-0.000278968
-0.000299837
-0.000306626
-0.000287542
-0.000232031
-0.000124837
1.36991e-05
0.00364326
0.000955704
-8.38247e-05
-0.00040269
-0.000434302
-0.000390039
-0.000335761
-0.000288854
-0.000252975
-0.000228213
-0.000213917
-0.0002093
-0.00021337
-0.000224594
-0.000240368
-0.000256142
-0.000263979
-0.000254076
-0.000232363
-0.000213276
-0.000207612
-0.000218962
-0.000242977
-0.000269484
-0.000285679
-0.000278482
-0.000234689
-0.000136134
4.82211e-07
0.00356874
0.000754719
-0.000256135
-0.00047035
-0.000446286
-0.000378331
-0.000314501
-0.000264131
-0.00022742
-0.000202875
-0.000189066
-0.000184825
-0.00018899
-0.000199954
-0.000214991
-0.00022912
-0.000233715
-0.000221935
-0.0002016
-0.000183345
-0.000175872
-0.000183251
-0.000203436
-0.000228863
-0.000248429
-0.000249435
-0.00021774
-0.000134308
-1.00025e-05
0.00341489
0.000449496
-0.000426714
-0.00050998
-0.000431701
-0.000345267
-0.000276501
-0.000226159
-0.000191044
-0.000168201
-0.000155535
-0.00015159
-0.000155146
-0.000164688
-0.000177657
-0.000189252
-0.000191766
-0.000182734
-0.00016764
-0.000153406
-0.000146316
-0.00015003
-0.000164152
-0.000184006
-0.000201423
-0.000205823
-0.000184349
-0.000119796
-1.68532e-05
0.00305357
5.05972e-06
-0.000549049
-0.000488185
-0.000370966
-0.000278965
-0.00021434
-0.000170262
-0.00014093
-0.000122465
-0.000112445
-0.000109343
-0.000112046
-0.000119326
-0.000129125
-0.000137717
-0.000140115
-0.000135902
-0.000127751
-0.000119452
-0.000114856
-0.000116587
-0.000124976
-0.000137609
-0.000149453
-0.000153197
-0.000139171
-9.42996e-05
-1.93068e-05
0.00247619
-0.000418366
-0.000517383
-0.000363125
-0.000248077
-0.000173884
-0.000126827
-9.68982e-05
-7.79248e-05
-6.63021e-05
-5.99458e-05
-5.76417e-05
-5.86186e-05
-6.21555e-05
-6.71141e-05
-7.15826e-05
-7.36414e-05
-7.31067e-05
-7.08332e-05
-6.83306e-05
-6.73128e-05
-6.90767e-05
-7.39463e-05
-8.09283e-05
-8.76004e-05
-9.00813e-05
-8.28007e-05
-5.79184e-05
-1.52754e-05
0.00237971
-0.00023783
-0.000226582
-0.000142744
-9.04693e-05
-5.98552e-05
-4.20876e-05
-3.18687e-05
-2.62118e-05
-2.34903e-05
-2.28107e-05
-2.36634e-05
-2.57207e-05
-2.86697e-05
-3.20312e-05
-3.52722e-05
-3.77792e-05
-3.92067e-05
-3.95334e-05
-3.91561e-05
-3.86024e-05
-3.82538e-05
-3.82542e-05
-3.84202e-05
-3.81835e-05
-3.65453e-05
-3.19659e-05
-2.22134e-05
-6.89946e-06
