# vtk DataFile Version 3.0
Malha 2D com triângulos e temperatura
ASCII
DATASET UNSTRUCTURED_GRID

POINTS 121 double
0 0 0
1 0 0
1 1 0
0 1 0
0.1 0 0
0.2 0 0
0.3 0 0
0.4 0 0
0.5 0 0
0.6 0 0
0.7 0 0
0.8 0 0
0.9 0 0
1 0.1 0
1 0.2 0
1 0.3 0
1 0.4 0
1 0.5 0
1 0.6 0
1 0.7 0
1 0.8 0
1 0.9 0
0.9 1 0
0.8 1 0
0.7 1 0
0.6 1 0
0.5 1 0
0.4 1 0
0.3 1 0
0.2 1 0
0.1 1 0
0 0.9 0
0 0.8 0
0 0.7 0
0 0.6 0
0 0.5 0
0 0.4 0
0 0.3 0
0 0.2 0
0 0.1 0
0.1 0.1 0
0.1 0.2 0
0.1 0.3 0
0.1 0.4 0
0.1 0.5 0
0.1 0.6 0
0.1 0.7 0
0.1 0.8 0
0.1 0.9 0
0.2 0.1 0
0.2 0.2 0
0.2 0.3 0
0.2 0.4 0
0.2 0.5 0
0.2 0.6 0
0.2 0.7 0
0.2 0.8 0
0.2 0.9 0
0.3 0.1 0
0.3 0.2 0
0.3 0.3 0
0.3 0.4 0
0.3 0.5 0
0.3 0.6 0
0.3 0.7 0
0.3 0.8 0
0.3 0.9 0
0.4 0.1 0
0.4 0.2 0
0.4 0.3 0
0.4 0.4 0
0.4 0.5 0
0.4 0.6 0
0.4 0.7 0
0.4 0.8 0
0.4 0.9 0
0.5 0.1 0
0.5 0.2 0
0.5 0.3 0
0.5 0.4 0
0.5 0.5 0
0.5 0.6 0
0.5 0.7 0
0.5 0.8 0
0.5 0.9 0
0.6 0.1 0
0.6 0.2 0
0.6 0.3 0
0.6 0.4 0
0.6 0.5 0
0.6 0.6 0
0.6 0.7 0
0.6 0.8 0
0.6 0.9 0
0.7 0.1 0
0.7 0.2 0
0.7 0.3 0
0.7 0.4 0
0.7 0.5 0
0.7 0.6 0
0.7 0.7 0
0.7 0.8 0
0.7 0.9 0
0.8 0.1 0
0.8 0.2 0
0.8 0.3 0
0.8 0.4 0
0.8 0.5 0
0.8 0.6 0
0.8 0.7 0
0.8 0.8 0
0.8 0.9 0
0.9 0.1 0
0.9 0.2 0
0.9 0.3 0
0.9 0.4 0
0.9 0.5 0
0.9 0.6 0
0.9 0.7 0
0.9 0.8 0
0.9 0.9 0

CELLS 100 500
4 0 4 40 39
4 39 40 41 38
4 38 41 42 37
4 37 42 43 36
4 36 43 44 35
4 35 44 45 34
4 34 45 46 33
4 33 46 47 32
4 32 47 48 31
4 31 48 30 3
4 4 5 49 40
4 40 49 50 41
4 41 50 51 42
4 42 51 52 43
4 43 52 53 44
4 44 53 54 45
4 45 54 55 46
4 46 55 56 47
4 47 56 57 48
4 48 57 29 30
4 5 6 58 49
4 49 58 59 50
4 50 59 60 51
4 51 60 61 52
4 52 61 62 53
4 53 62 63 54
4 54 63 64 55
4 55 64 65 56
4 56 65 66 57
4 57 66 28 29
4 6 7 67 58
4 58 67 68 59
4 59 68 69 60
4 60 69 70 61
4 61 70 71 62
4 62 71 72 63
4 63 72 73 64
4 64 73 74 65
4 65 74 75 66
4 66 75 27 28
4 7 8 76 67
4 67 76 77 68
4 68 77 78 69
4 69 78 79 70
4 70 79 80 71
4 71 80 81 72
4 72 81 82 73
4 73 82 83 74
4 74 83 84 75
4 75 84 26 27
4 8 9 85 76
4 76 85 86 77
4 77 86 87 78
4 78 87 88 79
4 79 88 89 80
4 80 89 90 81
4 81 90 91 82
4 82 91 92 83
4 83 92 93 84
4 84 93 25 26
4 9 10 94 85
4 85 94 95 86
4 86 95 96 87
4 87 96 97 88
4 88 97 98 89
4 89 98 99 90
4 90 99 100 91
4 91 100 101 92
4 92 101 102 93
4 93 102 24 25
4 10 11 103 94
4 94 103 104 95
4 95 104 105 96
4 96 105 106 97
4 97 106 107 98
4 98 107 108 99
4 99 108 109 100
4 100 109 110 101
4 101 110 111 102
4 102 111 23 24
4 11 12 112 103
4 103 112 113 104
4 104 113 114 105
4 105 114 115 106
4 106 115 116 107
4 107 116 117 108
4 108 117 118 109
4 109 118 119 110
4 110 119 120 111
4 111 120 22 23
4 12 1 13 112
4 112 13 14 113
4 113 14 15 114
4 114 15 16 115
4 115 16 17 116
4 116 17 18 117
4 117 18 19 118
4 118 19 20 119
4 119 20 21 120
4 120 21 2 22

CELL_TYPES 100
9
9
9
9
9
9
9
9
9
9
9
9
9
9
9
9
9
9
9
9
9
9
9
9
9
9
9
9
9
9
9
9
9
9
9
9
9
9
9
9
9
9
9
9
9
9
9
9
9
9
9
9
9
9
9
9
9
9
9
9
9
9
9
9
9
9
9
9
9
9
9
9
9
9
9
9
9
9
9
9
9
9
9
9
9
9
9
9
9
9
9
9
9
9
9
9
9
9
9
9

CELL_DATA 100
SCALARS Temperatura double 1
LOOKUP_TABLE default
-0.000799945
-8.52691e-05
0.000211393
-0.000302456
0.000505677
-0.000621065
0.000958614
-0.00104679
0.00171923
0.000882475
0.0009437
0.000133225
-0.000243518
0.000437077
-0.000597803
0.000877087
-0.00106089
0.00134594
-0.00133037
-0.00127138
-0.000874386
-0.000119587
0.000277171
-0.000421912
0.000642349
-0.000809512
0.00103195
-0.00108759
0.000932118
0.00104439
0.000804264
0.000133173
-0.00026106
0.000438192
-0.000599396
0.000788134
-0.000897746
0.000918687
-0.000740571
-0.000995297
-0.000716272
-0.000121432
0.000258868
-0.00041119
0.000575502
-0.000713618
0.000800353
-0.000771226
0.00057082
0.000871437
0.000629896
0.00011373
-0.000244683
0.000382245
-0.000534128
0.000641332
-0.00070565
0.000650799
-0.000461543
-0.000775332
-0.000549851
-0.000116743
0.000217934
-0.000363461
0.000468859
-0.000589464
0.000599641
-0.000561753
0.00040536
0.000734907
0.000466107
0.000102479
-0.000222688
0.000310175
-0.000448047
0.000486629
-0.00056065
0.000461066
-0.000338977
-0.000590791
-0.000415099
-0.000126275
0.00019463
-0.000317671
0.000363669
-0.000476257
0.00040399
-0.000433072
0.000137839
0.000644618
0.000308082
8.61611e-05
-0.000177817
0.000217596
-0.000315405
0.000308065
-0.00041497
0.000321135
-0.000712317
-0.000435212
