# vtk DataFile Version 3.0
Malha 2D com triângulos e temperatura
ASCII
DATASET UNSTRUCTURED_GRID

POINTS 36 double
0 0 0
1 0 0
1 1 0
0 1 0
0.2 0 0
0.4 0 0
0.6 0 0
0.8 0 0
1 0.2 0
1 0.4 0
1 0.6 0
1 0.8 0
0.8 1 0
0.6 1 0
0.4 1 0
0.2 1 0
0 0.8 0
0 0.6 0
0 0.4 0
0 0.2 0
0.2 0.2 0
0.2 0.4 0
0.2 0.6 0
0.2 0.8 0
0.4 0.2 0
0.4 0.4 0
0.4 0.6 0
0.4 0.8 0
0.6 0.2 0
0.6 0.4 0
0.6 0.6 0
0.6 0.8 0
0.8 0.2 0
0.8 0.4 0
0.8 0.6 0
0.8 0.8 0

CELLS 25 125
4 0 4 20 19
4 19 20 21 18
4 18 21 22 17
4 17 22 23 16
4 16 23 15 3
4 4 5 24 20
4 20 24 25 21
4 21 25 26 22
4 22 26 27 23
4 23 27 14 15
4 5 6 28 24
4 24 28 29 25
4 25 29 30 26
4 26 30 31 27
4 27 31 13 14
4 6 7 32 28
4 28 32 33 29
4 29 33 34 30
4 30 34 35 31
4 31 35 12 13
4 7 1 8 32
4 32 8 9 33
4 33 9 10 34
4 34 10 11 35
4 35 11 2 12

CELL_TYPES 25
9
9
9
9
9
9
9
9
9
9
9
9
9
9
9
9
9
9
9
9
9
9
9
9
9

CELL_DATA 25
SCALARS Temperatura double 1
LOOKUP_TABLE default
-0.0996647
-0.299921
-0.50011
-0.700871
-0.899702
-0.0995721
-0.299944
-0.500253
-0.701173
-0.899538
-0.0995544
-0.299919
-0.500241
-0.701192
-0.899496
-0.0995433
-0.299856
-0.500196
-0.701274
-0.899648
-0.0996102
-0.299826
-0.500121
-0.701146
-0.899943
