# vtk DataFile Version 3.0
Malha 2D com triângulos e temperatura
ASCII
DATASET UNSTRUCTURED_GRID

POINTS 961 double
0 0 0
1 0 0
1 1 0
0 1 0
0.0333333 0 0
0.0666667 0 0
0.1 0 0
0.133333 0 0
0.166667 0 0
0.2 0 0
0.233333 0 0
0.266667 0 0
0.3 0 0
0.333333 0 0
0.366667 0 0
0.4 0 0
0.433333 0 0
0.466667 0 0
0.5 0 0
0.533333 0 0
0.566667 0 0
0.6 0 0
0.633333 0 0
0.666667 0 0
0.7 0 0
0.733333 0 0
0.766667 0 0
0.8 0 0
0.833333 0 0
0.866667 0 0
0.9 0 0
0.933333 0 0
0.966667 0 0
1 0.0333333 0
1 0.0666667 0
1 0.1 0
1 0.133333 0
1 0.166667 0
1 0.2 0
1 0.233333 0
1 0.266667 0
1 0.3 0
1 0.333333 0
1 0.366667 0
1 0.4 0
1 0.433333 0
1 0.466667 0
1 0.5 0
1 0.533333 0
1 0.566667 0
1 0.6 0
1 0.633333 0
1 0.666667 0
1 0.7 0
1 0.733333 0
1 0.766667 0
1 0.8 0
1 0.833333 0
1 0.866667 0
1 0.9 0
1 0.933333 0
1 0.966667 0
0.966667 1 0
0.933333 1 0
0.9 1 0
0.866667 1 0
0.833333 1 0
0.8 1 0
0.766667 1 0
0.733333 1 0
0.7 1 0
0.666667 1 0
0.633333 1 0
0.6 1 0
0.566667 1 0
0.533333 1 0
0.5 1 0
0.466667 1 0
0.433333 1 0
0.4 1 0
0.366667 1 0
0.333333 1 0
0.3 1 0
0.266667 1 0
0.233333 1 0
0.2 1 0
0.166667 1 0
0.133333 1 0
0.1 1 0
0.0666667 1 0
0.0333333 1 0
0 0.966667 0
0 0.933333 0
0 0.9 0
0 0.866667 0
0 0.833333 0
0 0.8 0
0 0.766667 0
0 0.733333 0
0 0.7 0
0 0.666667 0
0 0.633333 0
0 0.6 0
0 0.566667 0
0 0.533333 0
0 0.5 0
0 0.466667 0
0 0.433333 0
0 0.4 0
0 0.366667 0
0 0.333333 0
0 0.3 0
0 0.266667 0
0 0.233333 0
0 0.2 0
0 0.166667 0
0 0.133333 0
0 0.1 0
0 0.0666667 0
0 0.0333333 0
0.0333333 0.0333333 0
0.0333333 0.0666667 0
0.0333333 0.1 0
0.0333333 0.133333 0
0.0333333 0.166667 0
0.0333333 0.2 0
0.0333333 0.233333 0
0.0333333 0.266667 0
0.0333333 0.3 0
0.0333333 0.333333 0
0.0333333 0.366667 0
0.0333333 0.4 0
0.0333333 0.433333 0
0.0333333 0.466667 0
0.0333333 0.5 0
0.0333333 0.533333 0
0.0333333 0.566667 0
0.0333333 0.6 0
0.0333333 0.633333 0
0.0333333 0.666667 0
0.0333333 0.7 0
0.0333333 0.733333 0
0.0333333 0.766667 0
0.0333333 0.8 0
0.0333333 0.833333 0
0.0333333 0.866667 0
0.0333333 0.9 0
0.0333333 0.933333 0
0.0333333 0.966667 0
0.0666667 0.0333333 0
0.0666667 0.0666667 0
0.0666667 0.1 0
0.0666667 0.133333 0
0.0666667 0.166667 0
0.0666667 0.2 0
0.0666667 0.233333 0
0.0666667 0.266667 0
0.0666667 0.3 0
0.0666667 0.333333 0
0.0666667 0.366667 0
0.0666667 0.4 0
0.0666667 0.433333 0
0.0666667 0.466667 0
0.0666667 0.5 0
0.0666667 0.533333 0
0.0666667 0.566667 0
0.0666667 0.6 0
0.0666667 0.633333 0
0.0666667 0.666667 0
0.0666667 0.7 0
0.0666667 0.733333 0
0.0666667 0.766667 0
0.0666667 0.8 0
0.0666667 0.833333 0
0.0666667 0.866667 0
0.0666667 0.9 0
0.0666667 0.933333 0
0.0666667 0.966667 0
0.1 0.0333333 0
0.1 0.0666667 0
0.1 0.1 0
0.1 0.133333 0
0.1 0.166667 0
0.1 0.2 0
0.1 0.233333 0
0.1 0.266667 0
0.1 0.3 0
0.1 0.333333 0
0.1 0.366667 0
0.1 0.4 0
0.1 0.433333 0
0.1 0.466667 0
0.1 0.5 0
0.1 0.533333 0
0.1 0.566667 0
0.1 0.6 0
0.1 0.633333 0
0.1 0.666667 0
0.1 0.7 0
0.1 0.733333 0
0.1 0.766667 0
0.1 0.8 0
0.1 0.833333 0
0.1 0.866667 0
0.1 0.9 0
0.1 0.933333 0
0.1 0.966667 0
0.133333 0.0333333 0
0.133333 0.0666667 0
0.133333 0.1 0
0.133333 0.133333 0
0.133333 0.166667 0
0.133333 0.2 0
0.133333 0.233333 0
0.133333 0.266667 0
0.133333 0.3 0
0.133333 0.333333 0
0.133333 0.366667 0
0.133333 0.4 0
0.133333 0.433333 0
0.133333 0.466667 0
0.133333 0.5 0
0.133333 0.533333 0
0.133333 0.566667 0
0.133333 0.6 0
0.133333 0.633333 0
0.133333 0.666667 0
0.133333 0.7 0
0.133333 0.733333 0
0.133333 0.766667 0
0.133333 0.8 0
0.133333 0.833333 0
0.133333 0.866667 0
0.133333 0.9 0
0.133333 0.933333 0
0.133333 0.966667 0
0.166667 0.0333333 0
0.166667 0.0666667 0
0.166667 0.1 0
0.166667 0.133333 0
0.166667 0.166667 0
0.166667 0.2 0
0.166667 0.233333 0
0.166667 0.266667 0
0.166667 0.3 0
0.166667 0.333333 0
0.166667 0.366667 0
0.166667 0.4 0
0.166667 0.433333 0
0.166667 0.466667 0
0.166667 0.5 0
0.166667 0.533333 0
0.166667 0.566667 0
0.166667 0.6 0
0.166667 0.633333 0
0.166667 0.666667 0
0.166667 0.7 0
0.166667 0.733333 0
0.166667 0.766667 0
0.166667 0.8 0
0.166667 0.833333 0
0.166667 0.866667 0
0.166667 0.9 0
0.166667 0.933333 0
0.166667 0.966667 0
0.2 0.0333333 0
0.2 0.0666667 0
0.2 0.1 0
0.2 0.133333 0
0.2 0.166667 0
0.2 0.2 0
0.2 0.233333 0
0.2 0.266667 0
0.2 0.3 0
0.2 0.333333 0
0.2 0.366667 0
0.2 0.4 0
0.2 0.433333 0
0.2 0.466667 0
0.2 0.5 0
0.2 0.533333 0
0.2 0.566667 0
0.2 0.6 0
0.2 0.633333 0
0.2 0.666667 0
0.2 0.7 0
0.2 0.733333 0
0.2 0.766667 0
0.2 0.8 0
0.2 0.833333 0
0.2 0.866667 0
0.2 0.9 0
0.2 0.933333 0
0.2 0.966667 0
0.233333 0.0333333 0
0.233333 0.0666667 0
0.233333 0.1 0
0.233333 0.133333 0
0.233333 0.166667 0
0.233333 0.2 0
0.233333 0.233333 0
0.233333 0.266667 0
0.233333 0.3 0
0.233333 0.333333 0
0.233333 0.366667 0
0.233333 0.4 0
0.233333 0.433333 0
0.233333 0.466667 0
0.233333 0.5 0
0.233333 0.533333 0
0.233333 0.566667 0
0.233333 0.6 0
0.233333 0.633333 0
0.233333 0.666667 0
0.233333 0.7 0
0.233333 0.733333 0
0.233333 0.766667 0
0.233333 0.8 0
0.233333 0.833333 0
0.233333 0.866667 0
0.233333 0.9 0
0.233333 0.933333 0
0.233333 0.966667 0
0.266667 0.0333333 0
0.266667 0.0666667 0
0.266667 0.1 0
0.266667 0.133333 0
0.266667 0.166667 0
0.266667 0.2 0
0.266667 0.233333 0
0.266667 0.266667 0
0.266667 0.3 0
0.266667 0.333333 0
0.266667 0.366667 0
0.266667 0.4 0
0.266667 0.433333 0
0.266667 0.466667 0
0.266667 0.5 0
0.266667 0.533333 0
0.266667 0.566667 0
0.266667 0.6 0
0.266667 0.633333 0
0.266667 0.666667 0
0.266667 0.7 0
0.266667 0.733333 0
0.266667 0.766667 0
0.266667 0.8 0
0.266667 0.833333 0
0.266667 0.866667 0
0.266667 0.9 0
0.266667 0.933333 0
0.266667 0.966667 0
0.3 0.0333333 0
0.3 0.0666667 0
0.3 0.1 0
0.3 0.133333 0
0.3 0.166667 0
0.3 0.2 0
0.3 0.233333 0
0.3 0.266667 0
0.3 0.3 0
0.3 0.333333 0
0.3 0.366667 0
0.3 0.4 0
0.3 0.433333 0
0.3 0.466667 0
0.3 0.5 0
0.3 0.533333 0
0.3 0.566667 0
0.3 0.6 0
0.3 0.633333 0
0.3 0.666667 0
0.3 0.7 0
0.3 0.733333 0
0.3 0.766667 0
0.3 0.8 0
0.3 0.833333 0
0.3 0.866667 0
0.3 0.9 0
0.3 0.933333 0
0.3 0.966667 0
0.333333 0.0333333 0
0.333333 0.0666667 0
0.333333 0.1 0
0.333333 0.133333 0
0.333333 0.166667 0
0.333333 0.2 0
0.333333 0.233333 0
0.333333 0.266667 0
0.333333 0.3 0
0.333333 0.333333 0
0.333333 0.366667 0
0.333333 0.4 0
0.333333 0.433333 0
0.333333 0.466667 0
0.333333 0.5 0
0.333333 0.533333 0
0.333333 0.566667 0
0.333333 0.6 0
0.333333 0.633333 0
0.333333 0.666667 0
0.333333 0.7 0
0.333333 0.733333 0
0.333333 0.766667 0
0.333333 0.8 0
0.333333 0.833333 0
0.333333 0.866667 0
0.333333 0.9 0
0.333333 0.933333 0
0.333333 0.966667 0
0.366667 0.0333333 0
0.366667 0.0666667 0
0.366667 0.1 0
0.366667 0.133333 0
0.366667 0.166667 0
0.366667 0.2 0
0.366667 0.233333 0
0.366667 0.266667 0
0.366667 0.3 0
0.366667 0.333333 0
0.366667 0.366667 0
0.366667 0.4 0
0.366667 0.433333 0
0.366667 0.466667 0
0.366667 0.5 0
0.366667 0.533333 0
0.366667 0.566667 0
0.366667 0.6 0
0.366667 0.633333 0
0.366667 0.666667 0
0.366667 0.7 0
0.366667 0.733333 0
0.366667 0.766667 0
0.366667 0.8 0
0.366667 0.833333 0
0.366667 0.866667 0
0.366667 0.9 0
0.366667 0.933333 0
0.366667 0.966667 0
0.4 0.0333333 0
0.4 0.0666667 0
0.4 0.1 0
0.4 0.133333 0
0.4 0.166667 0
0.4 0.2 0
0.4 0.233333 0
0.4 0.266667 0
0.4 0.3 0
0.4 0.333333 0
0.4 0.366667 0
0.4 0.4 0
0.4 0.433333 0
0.4 0.466667 0
0.4 0.5 0
0.4 0.533333 0
0.4 0.566667 0
0.4 0.6 0
0.4 0.633333 0
0.4 0.666667 0
0.4 0.7 0
0.4 0.733333 0
0.4 0.766667 0
0.4 0.8 0
0.4 0.833333 0
0.4 0.866667 0
0.4 0.9 0
0.4 0.933333 0
0.4 0.966667 0
0.433333 0.0333333 0
0.433333 0.0666667 0
0.433333 0.1 0
0.433333 0.133333 0
0.433333 0.166667 0
0.433333 0.2 0
0.433333 0.233333 0
0.433333 0.266667 0
0.433333 0.3 0
0.433333 0.333333 0
0.433333 0.366667 0
0.433333 0.4 0
0.433333 0.433333 0
0.433333 0.466667 0
0.433333 0.5 0
0.433333 0.533333 0
0.433333 0.566667 0
0.433333 0.6 0
0.433333 0.633333 0
0.433333 0.666667 0
0.433333 0.7 0
0.433333 0.733333 0
0.433333 0.766667 0
0.433333 0.8 0
0.433333 0.833333 0
0.433333 0.866667 0
0.433333 0.9 0
0.433333 0.933333 0
0.433333 0.966667 0
0.466667 0.0333333 0
0.466667 0.0666667 0
0.466667 0.1 0
0.466667 0.133333 0
0.466667 0.166667 0
0.466667 0.2 0
0.466667 0.233333 0
0.466667 0.266667 0
0.466667 0.3 0
0.466667 0.333333 0
0.466667 0.366667 0
0.466667 0.4 0
0.466667 0.433333 0
0.466667 0.466667 0
0.466667 0.5 0
0.466667 0.533333 0
0.466667 0.566667 0
0.466667 0.6 0
0.466667 0.633333 0
0.466667 0.666667 0
0.466667 0.7 0
0.466667 0.733333 0
0.466667 0.766667 0
0.466667 0.8 0
0.466667 0.833333 0
0.466667 0.866667 0
0.466667 0.9 0
0.466667 0.933333 0
0.466667 0.966667 0
0.5 0.0333333 0
0.5 0.0666667 0
0.5 0.1 0
0.5 0.133333 0
0.5 0.166667 0
0.5 0.2 0
0.5 0.233333 0
0.5 0.266667 0
0.5 0.3 0
0.5 0.333333 0
0.5 0.366667 0
0.5 0.4 0
0.5 0.433333 0
0.5 0.466667 0
0.5 0.5 0
0.5 0.533333 0
0.5 0.566667 0
0.5 0.6 0
0.5 0.633333 0
0.5 0.666667 0
0.5 0.7 0
0.5 0.733333 0
0.5 0.766667 0
0.5 0.8 0
0.5 0.833333 0
0.5 0.866667 0
0.5 0.9 0
0.5 0.933333 0
0.5 0.966667 0
0.533333 0.0333333 0
0.533333 0.0666667 0
0.533333 0.1 0
0.533333 0.133333 0
0.533333 0.166667 0
0.533333 0.2 0
0.533333 0.233333 0
0.533333 0.266667 0
0.533333 0.3 0
0.533333 0.333333 0
0.533333 0.366667 0
0.533333 0.4 0
0.533333 0.433333 0
0.533333 0.466667 0
0.533333 0.5 0
0.533333 0.533333 0
0.533333 0.566667 0
0.533333 0.6 0
0.533333 0.633333 0
0.533333 0.666667 0
0.533333 0.7 0
0.533333 0.733333 0
0.533333 0.766667 0
0.533333 0.8 0
0.533333 0.833333 0
0.533333 0.866667 0
0.533333 0.9 0
0.533333 0.933333 0
0.533333 0.966667 0
0.566667 0.0333333 0
0.566667 0.0666667 0
0.566667 0.1 0
0.566667 0.133333 0
0.566667 0.166667 0
0.566667 0.2 0
0.566667 0.233333 0
0.566667 0.266667 0
0.566667 0.3 0
0.566667 0.333333 0
0.566667 0.366667 0
0.566667 0.4 0
0.566667 0.433333 0
0.566667 0.466667 0
0.566667 0.5 0
0.566667 0.533333 0
0.566667 0.566667 0
0.566667 0.6 0
0.566667 0.633333 0
0.566667 0.666667 0
0.566667 0.7 0
0.566667 0.733333 0
0.566667 0.766667 0
0.566667 0.8 0
0.566667 0.833333 0
0.566667 0.866667 0
0.566667 0.9 0
0.566667 0.933333 0
0.566667 0.966667 0
0.6 0.0333333 0
0.6 0.0666667 0
0.6 0.1 0
0.6 0.133333 0
[...]
CELL_DATA 900
SCALARS Temperatura double 1
LOOKUP_TABLE default
-0.22091
-0.448262
-0.667343
-0.82472
-0.917917
-0.957093
-0.951168
-0.908118
-0.835173
-0.738953
-0.625559
-0.500616
-0.369281
-0.23618
-0.105228
0.0212408
0.141722
0.254753
0.358084
0.449741
0.527995
0.591407
0.6388
0.669161
0.68143
0.674026
0.643803
0.581204
0.473835
0.258975
-0.240263
-0.492738
-0.727158
-0.889008
-0.972784
-0.991159
-0.955289
-0.875169
-0.759872
-0.617711
-0.456357
-0.282897
-0.10384
0.0749348
0.24818
0.413812
0.56948
0.711976
0.838264
0.945624
1.03157
1.09386
1.13046
1.13929
1.11779
1.06197
0.964296
0.807754
0.571075
0.255873
-0.223988
-0.443558
-0.64575
-0.779839
-0.838682
-0.833917
-0.776161
-0.675121
-0.539739
-0.378318
-0.198616
-0.0078911
0.187082
0.380049
0.564941
0.740309
0.902966
1.04932
1.1758
1.27914
1.35632
1.40457
1.42122
1.40341
1.34752
1.2481
1.09622
0.876553
0.57699
0.234398
-0.211468
-0.408107
-0.587368
-0.701185
-0.742213
-0.721286
-0.648469
-0.533129
-0.384024
-0.209405
-0.0170883
0.185497
0.391299
0.593661
0.785758
0.966794
1.1332
1.28099
1.40603
1.50455
1.5731
1.60847
1.60753
1.56694
1.48259
1.34899
1.15853
0.901071
0.57349
0.220692
-0.201688
-0.383427
-0.547574
-0.648079
-0.677817
-0.646969
-0.565086
-0.441173
-0.283774
-0.101053
0.0991328
0.309189
0.521772
0.729811
0.925874
1.11016
1.27864
1.42673
1.54984
1.64378
1.70476
1.72926
1.71394
1.65534
1.54966
1.39241
1.17841
0.902056
0.564638
0.210065
-0.193719
-0.36692
-0.522292
-0.615437
-0.639576
-0.604261
-0.518526
-0.390987
-0.229936
-0.0434169
0.160699
0.374665
0.590832
0.801655
0.999591
1.18591
1.35554
1.50357
1.62502
1.71535
1.77052
1.78688
1.7611
1.69002
1.57054
1.39951
1.17385
0.890655
0.552625
0.200784
-0.186765
-0.356287
-0.507806
-0.598438
-0.621776
-0.586683
-0.501629
-0.374792
-0.214158
-0.0275997
0.177041
0.391891
0.609008
0.820257
1.01884
1.20637
1.37666
1.52472
1.64519
1.7333
1.78484
1.79618
1.76417
1.68612
1.55972
1.38295
1.15403
0.871432
0.538044
0.191967
-0.180146
-0.349531
-0.500859
-0.592785
-0.619271
-0.588395
-0.507978
-0.385687
-0.229124
-0.0459226
0.15617
0.369217
0.585026
0.794849
0.993112
1.18114
1.35195
1.50042
1.62088
1.70839
1.75868
1.7682
1.73407
1.65406
1.52648
1.35002
1.12363
0.84645
0.521166
0.183149
-0.173278
-0.344904
-0.498581
-0.594657
-0.627459
-0.604164
-0.531845
-0.417558
-0.268429
-0.0917571
0.104897
0.313618
0.526057
0.732927
0.929893
1.11787
1.28923
1.43861
1.56015
1.64877
1.7002
1.71099
1.67848
1.60077
1.47655
1.30491
1.08514
0.816778
0.502166
0.174075
-0.165661
-0.340875
-0.498432
-0.600645
-0.642206
-0.629281
-0.568083
-0.464945
-0.326405
-0.159312
0.0290771
0.230991
0.438046
0.640552
0.835319
1.0227
1.19461
1.34542
1.46912
1.56055
1.6154
1.63027
1.60263
1.53075
1.41348
1.25007
1.03999
0.78303
0.481163
0.164595
-0.156878
-0.336104
-0.498158
-0.607684
-0.659766
-0.659455
-0.611995
-0.522877
-0.397928
-0.243408
-0.0661301
0.126435
0.326033
0.522775
0.714365
0.900497
1.07283
1.22548
1.35235
1.44814
1.50849
1.52995
1.50999
1.44686
1.33942
1.18695
0.989007
0.745586
0.458241
0.154626
-0.146589
-0.329427
-0.49576
-0.613008
-0.676708
-0.690715
-0.659204
-0.586712
-0.478219
-0.339253
-0.176012
0.00451851
0.194425
0.383891
0.571124
0.75512
0.927529
1.08227
1.21312
1.31465
1.38235
1.41261
1.40274
1.35086
1.25569
1.11644
0.932717
0.704688
0.43346
0.14412
-0.134553
-0.31988
-0.489496
-0.614125
-0.689862
-0.719325
-0.705543
-0.651991
-0.562674
-0.442235
-0.296071
-0.130469
0.0472501
0.227678
0.409064
0.589714
0.761546
0.918334
1.05373
1.16214
1.23879
1.27981
1.28221
1.24379
1.16306
1.03907
0.871452
0.660503
0.406872
0.133059
-0.120678
-0.306755
-0.47792
-0.608826
-0.696303
-0.741739
-0.746968
-0.714321
-0.646711
-0.547741
-0.42182
-0.274298
-0.111613
0.0576336
0.231276
0.406951
0.577133
0.735531
0.875707
0.991839
1.07883
1.13238
1.14905
1.1262
1.06196
0.955177
0.805446
0.613176
0.378549
0.121461
-0.10517
-0.289788
-0.459994
-0.595248
-0.693371
-0.754583
-0.779516
-0.7693
-0.725657
-0.651014
-0.548605
-0.422601
-0.278235
-0.122809
0.0407239
0.209302
0.376218
0.535276
0.680011
0.804368
0.902833
0.970559
1.00346
0.998266
0.952598
0.86498
0.734905
0.562876
0.348622
0.109395
-0.0873824
-0.267151
-0.432706
-0.569277
-0.675944
-0.751828
-0.796369
-0.809454
-0.791539
-0.743751
-0.667988
-0.567015
-0.444569
-0.30617
-0.155824
0.00270717
0.16377
0.321449
0.469359
0.601257
0.711205
0.793734
0.844017
0.858046
0.832783
0.766311
0.657926
0.508149
0.316194
0.0964641
-0.065461
-0.235182
-0.39127
-0.525357
-0.637907
-0.726897
-0.790539
-0.827436
-0.836717
-0.818124
-0.772098
-0.69985
-0.603433
-0.486335
-0.353638
-0.209529
-0.0584121
0.0942215
0.242227
0.37932
0.499246
0.595983
0.663985
0.698449
0.695588
0.652886
0.569265
0.445092
0.278829
0.0815651
-0.0385545
-0.191809
-0.332567
-0.459485
-0.574483
-0.674317
-0.755948
-0.816684
-0.854305
-0.867135
-0.854094
-0.814745
-0.749341
-0.659198
-0.550143
-0.426397
-0.290942
-0.148633
-0.00511647
0.133521
0.260912
0.370622
0.456443
0.512734
0.534812
0.519336
0.464591
0.370546
0.2346
0.0638663
-0.00697706
-0.136905
-0.255735
-0.369984
-0.483148
-0.590721
-0.688411
-0.772246
-0.838672
-0.884593
-0.907391
-0.90494
-0.87562
-0.818452
-0.739415
-0.642511
-0.529213
-0.403459
-0.270086
-0.134677
-0.00344228
0.116994
0.21989
0.298793
0.348021
0.363193
0.341673
0.282754
0.1824
0.042925
0.0290419
-0.0702959
-0.160038
-0.255402
-0.361626
-0.472944
-0.583839
-0.689104
-0.783902
-0.863764
-0.924572
-0.962529
-0.974137
-0.956105
-0.913728
-0.85066
-0.76682
-0.664929
-0.548644
-0.422672
-0.292699
-0.165213
-0.0472317
0.0541107
0.132121
0.181205
0.197508
0.179316
0.120685
0.0181081
0.0692164
0.00804265
-0.0450268
-0.114691
-0.208103
-0.318271
-0.438514
-0.562466
-0.684093
-0.797649
-0.897611
-0.97861
-1.03536
-1.06236
-1.06325
-1.04133
-0.994935
-0.925285
-0.834452
-0.725827
-0.604102
-0.475165
-0.345893
-0.22378
-0.116388
-0.0305921
0.0282684
0.0570813
0.0473823
-0.0114381
0.113144
0.0978794
0.0893239
0.0526331
-0.0214231
-0.124683
-0.249385
-0.388101
-0.53372
-0.679355
-0.818236
-0.943593
-1.04853
-1.12564
-1.17589
-1.20231
-1.20172
-1.17354
-1.11787
-1.03633
-0.932049
-0.809712
-0.675423
-0.536469
-0.400863
-0.276599
-0.170651
-0.0879311
-0.0402089
-0.0468272
0.160282
0.198667
0.242531
0.246365
0.198736
0.108909
-0.0143608
-0.162699
-0.328053
-0.502563
-0.678414
-0.847678
-1.00215
-1.1329
-1.23738
-1.31857
-1.37188
-1.39472
-1.38491
-1.34183
-1.26652
-1.1617
-1.03187
-0.883228
-0.723419
-0.560976
-0.404334
-0.260493
-0.145479
-0.0894535
0.209948
0.309533
0.413578
0.465556
0.451765
0.382509
0.26745
0.115803
-0.0635805
-0.262047
-0.470962
-0.681522
-0.884562
-1.07022
-1.23174
-1.37245
-1.48664
-1.56942
-1.61627
-1.62407
-1.59121
-1.51775
-1.40561
-1.25869
-1.08294
-0.886198
-0.677528
-0.465863
-0.272457
-0.140944
0.261351
0.429322
0.600969
0.708555
0.736122
0.694968
0.595598
0.447974
0.261619
0.0458152
-0.190202
-0.437036
-0.684934
-0.923569
-1.14246
-1.34477
-1.52433
-1.67397
-1.787
-1.85774
-1.88171
-1.85573
-1.7782
-1.64937
-1.47173
-1.25032
-0.992837
-0.708898
-0.425485
-0.202966
0.313663
0.556736
0.802909
0.97319
1.04949
1.04409
0.968324
0.83282
0.647675
0.422662
0.167443
-0.108223
-0.394283
-0.680195
-0.953702
-1.2164
-1.46185
-1.6816
-1.86712
-2.01049
-2.10443
-2.14243
-2.11883
-2.02913
-1.87042
-1.64215
-1.34706
-0.992045
-0.60845
-0.276869
0.366125
0.690564
1.01764
1.25712
1.3891
1.42695
1.38282
1.26797
1.09298
0.868026
0.603069
0.30809
-0.00674729
-0.330907
-0.652008
-0.969731
-1.277
-1.56499
-1.82407
-2.0447
-2.21745
-2.33294
-2.38173
-2.35431
-2.24119
-2.03348
-1.7242
-1.31089
-0.823338
-0.36369
0.418181
0.830096
1.24405
1.55838
1.75227
1.84041
1.83578
1.75019
1.59465
1.37963
1.11535
0.811955
0.479659
0.128815
-0.228923
-0.591525
-0.951783
-1.30053
-1.62772
-1.92313
-2.17614
-2.37559
-2.50946
-2.56437
-2.52495
-2.37321
-2.08853
-1.65003
-1.07096
-0.466788
0.469429
0.975585
1.48237
1.87574
2.13671
2.28155
2.32395
2.27613
2.14934
1.95429
1.70145
1.40116
1.06374
0.699437
0.318623
-0.0744039
-0.473556
-0.869786
-1.25286
-1.61242
-1.93751
-2.21641
-2.43623
-2.58207
-2.63576
-2.57365
-2.36315
-1.95912
-1.33254
-0.588956
0.437811
0.902804
1.38196
1.76179
2.02976
2.19824
2.27768
2.27742
2.20618
2.07236
1.88433
1.65045
1.37917
1.07888
0.757427
0.4201
0.0714785
-0.282364
-0.632905
-0.971224
-1.2879
-1.57288
-1.81517
-2.00212
-2.11845
-2.14439
-2.05218
-1.79974
-1.34141
-0.7235
