# vtk DataFile Version 3.0
Malha 2D com triângulos e temperatura
ASCII
DATASET UNSTRUCTURED_GRID

POINTS 900 double
0 0 0
1 0 0
1 1 0
0 1 0
0.0344828 0 0
0.0689655 0 0
0.103448 0 0
0.137931 0 0
0.172414 0 0
0.206897 0 0
0.241379 0 0
0.275862 0 0
0.310345 0 0
0.344828 0 0
0.37931 0 0
0.413793 0 0
0.448276 0 0
0.482759 0 0
0.517241 0 0
0.551724 0 0
0.586207 0 0
0.62069 0 0
0.655172 0 0
0.689655 0 0
0.724138 0 0
0.758621 0 0
0.793103 0 0
0.827586 0 0
0.862069 0 0
0.896552 0 0
0.931034 0 0
0.965517 0 0
1 0.0344828 0
1 0.0689655 0
1 0.103448 0
1 0.137931 0
1 0.172414 0
1 0.206897 0
1 0.241379 0
1 0.275862 0
1 0.310345 0
1 0.344828 0
1 0.37931 0
1 0.413793 0
1 0.448276 0
1 0.482759 0
1 0.517241 0
1 0.551724 0
1 0.586207 0
1 0.62069 0
1 0.655172 0
1 0.689655 0
1 0.724138 0
1 0.758621 0
1 0.793103 0
1 0.827586 0
1 0.862069 0
1 0.896552 0
1 0.931034 0
1 0.965517 0
0.965517 1 0
0.931034 1 0
0.896552 1 0
0.862069 1 0
0.827586 1 0
0.793103 1 0
0.758621 1 0
0.724138 1 0
0.689655 1 0
0.655172 1 0
0.62069 1 0
0.586207 1 0
0.551724 1 0
0.517241 1 0
0.482759 1 0
0.448276 1 0
0.413793 1 0
0.37931 1 0
0.344828 1 0
0.310345 1 0
0.275862 1 0
0.241379 1 0
0.206897 1 0
0.172414 1 0
0.137931 1 0
0.103448 1 0
0.0689655 1 0
0.0344828 1 0
0 0.965517 0
0 0.931034 0
0 0.896552 0
0 0.862069 0
0 0.827586 0
0 0.793103 0
0 0.758621 0
0 0.724138 0
0 0.689655 0
0 0.655172 0
0 0.62069 0
0 0.586207 0
0 0.551724 0
0 0.517241 0
0 0.482759 0
0 0.448276 0
0 0.413793 0
0 0.37931 0
0 0.344828 0
0 0.310345 0
0 0.275862 0
0 0.241379 0
0 0.206897 0
0 0.172414 0
0 0.137931 0
0 0.103448 0
0 0.0689655 0
0 0.0344828 0
0.0344828 0.965517 0
0.0344828 0.931034 0
0.0344828 0.896552 0
0.0344828 0.862069 0
0.0344828 0.827586 0
0.0344828 0.793103 0
0.0344828 0.758621 0
0.0344828 0.724138 0
0.0344828 0.689655 0
0.0344828 0.655172 0
0.0344828 0.62069 0
0.0344828 0.586207 0
0.0344828 0.551724 0
0.0344828 0.517241 0
0.0344828 0.482759 0
0.0344828 0.448276 0
0.0344828 0.413793 0
0.0344828 0.37931 0
0.0344828 0.344828 0
0.0344828 0.310345 0
0.0344828 0.275862 0
0.0344828 0.241379 0
0.0344828 0.206897 0
0.0344828 0.172414 0
0.0344828 0.137931 0
0.0344828 0.103448 0
0.0344828 0.0689655 0
0.0344828 0.0344828 0
0.0689655 0.965517 0
0.0689655 0.931034 0
0.0689655 0.896552 0
0.0689655 0.862069 0
0.0689655 0.827586 0
0.0689655 0.793103 0
0.0689655 0.758621 0
0.0689655 0.724138 0
0.0689655 0.689655 0
0.0689655 0.655172 0
0.0689655 0.62069 0
0.0689655 0.586207 0
0.0689655 0.551724 0
0.0689655 0.517241 0
0.0689655 0.482759 0
0.0689655 0.448276 0
0.0689655 0.413793 0
0.0689655 0.37931 0
0.0689655 0.344828 0
0.0689655 0.310345 0
0.0689655 0.275862 0
0.0689655 0.241379 0
0.0689655 0.206897 0
0.0689655 0.172414 0
0.0689655 0.137931 0
0.0689655 0.103448 0
0.0689655 0.0689655 0
0.0689655 0.0344828 0
0.103448 0.965517 0
0.103448 0.931034 0
0.103448 0.896552 0
0.103448 0.862069 0
0.103448 0.827586 0
0.103448 0.793103 0
0.103448 0.758621 0
0.103448 0.724138 0
0.103448 0.689655 0
0.103448 0.655172 0
0.103448 0.62069 0
0.103448 0.586207 0
0.103448 0.551724 0
0.103448 0.517241 0
0.103448 0.482759 0
0.103448 0.448276 0
0.103448 0.413793 0
0.103448 0.37931 0
0.103448 0.344828 0
0.103448 0.310345 0
0.103448 0.275862 0
0.103448 0.241379 0
0.103448 0.206897 0
0.103448 0.172414 0
0.103448 0.137931 0
0.103448 0.103448 0
0.103448 0.0689655 0
0.103448 0.0344828 0
0.137931 0.965517 0
0.137931 0.931034 0
0.137931 0.896552 0
0.137931 0.862069 0
0.137931 0.827586 0
0.137931 0.793103 0
0.137931 0.758621 0
0.137931 0.724138 0
0.137931 0.689655 0
0.137931 0.655172 0
0.137931 0.62069 0
0.137931 0.586207 0
0.137931 0.551724 0
0.137931 0.517241 0
0.137931 0.482759 0
0.137931 0.448276 0
0.137931 0.413793 0
0.137931 0.37931 0
0.137931 0.344828 0
0.137931 0.310345 0
0.137931 0.275862 0
0.137931 0.241379 0
0.137931 0.206897 0
0.137931 0.172414 0
0.137931 0.137931 0
0.137931 0.103448 0
0.137931 0.0689655 0
0.137931 0.0344828 0
0.172414 0.965517 0
0.172414 0.931034 0
0.172414 0.896552 0
0.172414 0.862069 0
0.172414 0.827586 0
0.172414 0.793103 0
0.172414 0.758621 0
0.172414 0.724138 0
0.172414 0.689655 0
0.172414 0.655172 0
0.172414 0.62069 0
0.172414 0.586207 0
0.172414 0.551724 0
0.172414 0.517241 0
0.172414 0.482759 0
0.172414 0.448276 0
0.172414 0.413793 0
0.172414 0.37931 0
0.172414 0.344828 0
0.172414 0.310345 0
0.172414 0.275862 0
0.172414 0.241379 0
0.172414 0.206897 0
0.172414 0.172414 0
0.172414 0.137931 0
0.172414 0.103448 0
0.172414 0.0689655 0
0.172414 0.0344828 0
0.206897 0.965517 0
0.206897 0.931034 0
0.206897 0.896552 0
0.206897 0.862069 0
0.206897 0.827586 0
0.206897 0.793103 0
0.206897 0.758621 0
0.206897 0.724138 0
0.206897 0.689655 0
0.206897 0.655172 0
0.206897 0.62069 0
0.206897 0.586207 0
0.206897 0.551724 0
0.206897 0.517241 0
0.206897 0.482759 0
0.206897 0.448276 0
0.206897 0.413793 0
0.206897 0.37931 0
0.206897 0.344828 0
0.206897 0.310345 0
0.206897 0.275862 0
0.206897 0.241379 0
0.206897 0.206897 0
0.206897 0.172414 0
0.206897 0.137931 0
0.206897 0.103448 0
0.206897 0.0689655 0
0.206897 0.0344828 0
0.241379 0.965517 0
0.241379 0.931034 0
0.241379 0.896552 0
0.241379 0.862069 0
0.241379 0.827586 0
0.241379 0.793103 0
0.241379 0.758621 0
0.241379 0.724138 0
0.241379 0.689655 0
0.241379 0.655172 0
0.241379 0.62069 0
0.241379 0.586207 0
0.241379 0.551724 0
0.241379 0.517241 0
0.241379 0.482759 0
0.241379 0.448276 0
0.241379 0.413793 0
0.241379 0.37931 0
0.241379 0.344828 0
0.241379 0.310345 0
0.241379 0.275862 0
0.241379 0.241379 0
0.241379 0.206897 0
0.241379 0.172414 0
0.241379 0.137931 0
0.241379 0.103448 0
0.241379 0.0689655 0
0.241379 0.0344828 0
0.275862 0.965517 0
0.275862 0.931034 0
0.275862 0.896552 0
0.275862 0.862069 0
0.275862 0.827586 0
0.275862 0.793103 0
0.275862 0.758621 0
0.275862 0.724138 0
0.275862 0.689655 0
0.275862 0.655172 0
0.275862 0.62069 0
0.275862 0.586207 0
0.275862 0.551724 0
0.275862 0.517241 0
0.275862 0.482759 0
0.275862 0.448276 0
0.275862 0.413793 0
0.275862 0.37931 0
0.275862 0.344828 0
0.275862 0.310345 0
0.275862 0.275862 0
0.275862 0.241379 0
0.275862 0.206897 0
0.275862 0.172414 0
0.275862 0.137931 0
0.275862 0.103448 0
0.275862 0.0689655 0
0.275862 0.0344828 0
0.310345 0.965517 0
0.310345 0.931034 0
0.310345 0.896552 0
0.310345 0.862069 0
0.310345 0.827586 0
0.310345 0.793103 0
0.310345 0.758621 0
0.310345 0.724138 0
0.310345 0.689655 0
0.310345 0.655172 0
0.310345 0.62069 0
0.310345 0.586207 0
0.310345 0.551724 0
0.310345 0.517241 0
0.310345 0.482759 0
0.310345 0.448276 0
0.310345 0.413793 0
0.310345 0.37931 0
0.310345 0.344828 0
0.310345 0.310345 0
0.310345 0.275862 0
0.310345 0.241379 0
0.310345 0.206897 0
0.310345 0.172414 0
0.310345 0.137931 0
0.310345 0.103448 0
0.310345 0.0689655 0
0.310345 0.0344828 0
0.344828 0.965517 0
0.344828 0.931034 0
0.344828 0.896552 0
0.344828 0.862069 0
0.344828 0.827586 0
0.344828 0.793103 0
0.344828 0.758621 0
0.344828 0.724138 0
0.344828 0.689655 0
0.344828 0.655172 0
0.344828 0.62069 0
0.344828 0.586207 0
0.344828 0.551724 0
0.344828 0.517241 0
0.344828 0.482759 0
0.344828 0.448276 0
0.344828 0.413793 0
0.344828 0.37931 0
0.344828 0.344828 0
0.344828 0.310345 0
0.344828 0.275862 0
0.344828 0.241379 0
0.344828 0.206897 0
0.344828 0.172414 0
0.344828 0.137931 0
0.344828 0.103448 0
0.344828 0.0689655 0
0.344828 0.0344828 0
0.37931 0.965517 0
0.37931 0.931034 0
0.37931 0.896552 0
0.37931 0.862069 0
0.37931 0.827586 0
0.37931 0.793103 0
0.37931 0.758621 0
0.37931 0.724138 0
0.37931 0.689655 0
0.37931 0.655172 0
0.37931 0.62069 0
0.37931 0.586207 0
0.37931 0.551724 0
0.37931 0.517241 0
0.37931 0.482759 0
0.37931 0.448276 0
0.37931 0.413793 0
0.37931 0.37931 0
0.37931 0.344828 0
0.37931 0.310345 0
0.37931 0.275862 0
0.37931 0.241379 0
0.37931 0.206897 0
0.37931 0.172414 0
0.37931 0.137931 0
0.37931 0.103448 0
0.37931 0.0689655 0
0.37931 0.0344828 0
0.413793 0.965517 0
0.413793 0.931034 0
0.413793 0.896552 0
0.413793 0.862069 0
0.413793 0.827586 0
0.413793 0.793103 0
0.413793 0.758621 0
0.413793 0.724138 0
0.413793 0.689655 0
0.413793 0.655172 0
0.413793 0.62069 0
0.413793 0.586207 0
0.413793 0.551724 0
0.413793 0.517241 0
0.413793 0.482759 0
0.413793 0.448276 0
0.413793 0.413793 0
0.413793 0.37931 0
0.413793 0.344828 0
0.413793 0.310345 0
0.413793 0.275862 0
0.413793 0.241379 0
0.413793 0.206897 0
0.413793 0.172414 0
0.413793 0.137931 0
0.413793 0.103448 0
0.413793 0.0689655 0
0.413793 0.0344828 0
0.448276 0.965517 0
0.448276 0.931034 0
0.448276 0.896552 0
0.448276 0.862069 0
0.448276 0.827586 0
0.448276 0.793103 0
0.448276 0.758621 0
0.448276 0.724138 0
0.448276 0.689655 0
0.448276 0.655172 0
0.448276 0.62069 0
0.448276 0.586207 0
0.448276 0.551724 0
0.448276 0.517241 0
0.448276 0.482759 0
0.448276 0.448276 0
0.448276 0.413793 0
0.448276 0.37931 0
0.448276 0.344828 0
0.448276 0.310345 0
0.448276 0.275862 0
0.448276 0.241379 0
0.448276 0.206897 0
0.448276 0.172414 0
0.448276 0.137931 0
0.448276 0.103448 0
0.448276 0.0689655 0
0.448276 0.0344828 0
0.482759 0.965517 0
0.482759 0.931034 0
0.482759 0.896552 0
0.482759 0.862069 0
0.482759 0.827586 0
0.482759 0.793103 0
0.482759 0.758621 0
0.482759 0.724138 0
0.482759 0.689655 0
0.482759 0.655172 0
0.482759 0.62069 0
0.482759 0.586207 0
0.482759 0.551724 0
0.482759 0.517241 0
0.482759 0.482759 0
0.482759 0.448276 0
0.482759 0.413793 0
0.482759 0.37931 0
0.482759 0.344828 0
0.482759 0.310345 0
0.482759 0.275862 0
0.482759 0.241379 0
0.482759 0.206897 0
0.482759 0.172414 0
0.482759 0.137931 0
0.482759 0.103448 0
0.482759 0.0689655 0
0.482759 0.0344828 0
0.517241 0.965517 0
0.517241 0.931034 0
0.517241 0.896552 0
0.517241 0.862069 0
0.517241 0.827586 0
0.517241 0.793103 0
0.517241 0.758621 0
0.517241 0.724138 0
0.517241 0.689655 0
0.517241 0.655172 0
0.517241 0.62069 0
0.517241 0.586207 0
0.517241 0.551724 0
0.517241 0.517241 0
0.517241 0.482759 0
0.517241 0.448276 0
0.517241 0.413793 0
0.517241 0.37931 0
0.517241 0.344828 0
0.517241 0.310345 0
0.517241 0.275862 0
0.517241 0.241379 0
0.517241 0.206897 0
0.517241 0.172414 0
0.517241 0.137931 0
0.517241 0.103448 0
[...]
CELL_DATA 841
SCALARS Temperatura double 1
LOOKUP_TABLE default
0.10579
0.219782
0.191037
0.150698
0.115116
0.0878881
0.0678778
0.0535225
0.0433446
0.035961
0.03055
0.0261784
0.0224543
0.018799
0.015075
0.0109768
0.00653683
0.00167247
-0.00344852
-0.00871916
-0.0138524
-0.0185816
-0.0225167
-0.0252656
-0.0263551
-0.0252924
-0.0215009
-0.0150759
-0.00413551
0.0871959
0.211365
0.241665
0.233834
0.214684
0.193752
0.175914
0.160794
0.148788
0.138669
0.130176
0.122422
0.115103
0.107705
0.100001
0.0917632
0.0828824
0.0733502
0.0632027
0.0526118
0.0417744
0.0310216
0.0207141
0.01133
0.00339281
-0.00246232
-0.00550205
-0.0060205
-0.000590286
0.0663772
0.17341
0.230372
0.250669
0.250649
0.24367
0.233577
0.224048
0.21462
0.206314
0.198139
0.190387
0.182291
0.173907
0.164765
0.154858
0.143973
0.132129
0.119326
0.105678
0.0913666
0.0766459
0.0618726
0.0474708
0.0339783
0.0220157
0.0123376
0.00452837
0.00287982
0.0532623
0.143257
0.209712
0.244215
0.259406
0.262819
0.261653
0.257295
0.252405
0.246412
0.240357
0.233434
0.226067
0.217641
0.208314
0.197716
0.185911
0.172752
0.158319
0.142664
0.125966
0.10847
0.0905136
0.0725417
0.0550909
0.0388189
0.0244915
0.0116548
0.0052286
0.0433865
0.121749
0.188847
0.231888
0.25558
0.268228
0.273158
0.274722
0.273242
0.270638
0.266324
0.261172
0.254539
0.246812
0.237521
0.226826
0.214468
0.200534
0.184966
0.167898
0.149474
0.129959
0.109708
0.0891825
0.0689624
0.0497311
0.0322991
0.016179
0.00673908
0.0371577
0.105728
0.171848
0.218022
0.248321
0.266261
0.277173
0.282477
0.28499
0.284593
0.28266
0.27866
0.273254
0.265948
0.257039
0.246194
0.233548
0.218957
0.202539
0.184347
0.164596
0.143554
0.121615
0.0992826
0.0771744
0.05603
0.0366959
0.018669
0.00758305
0.0320028
0.0942797
0.157784
0.206185
0.239589
0.262367
0.276645
0.285929
0.290752
0.292997
0.292397
0.289909
0.285102
0.278437
0.269559
0.25868
0.245599
0.230446
0.213203
0.194051
0.173184
0.150936
0.127738
0.104144
0.080833
0.0585927
0.0383253
0.0195022
0.00789388
0.0288416
0.0856945
0.147251
0.195922
0.232179
0.257395
0.275114
0.286515
0.293939
0.29752
0.298524
0.296673
0.292612
0.286018
0.277202
0.265941
0.252401
0.236516
0.218454
0.198347
0.176484
0.153229
0.129077
0.104645
0.0806704
0.0580081
0.0376074
0.0189239
0.00774109
0.0260389
0.0796642
0.139093
0.188325
0.225749
0.253495
0.272929
0.286655
0.295294
0.300416
0.301999
0.300881
0.296835
0.290287
0.281028
0.26928
0.254956
0.238232
0.219194
0.198106
0.175273
0.151141
0.126267
0.101335
0.0771553
0.0546431
0.0348084
0.017082
0.00718198
0.0244679
0.0753679
0.133524
0.182606
0.221447
0.250384
0.271721
0.286481
0.296495
0.302089
0.304307
0.303091
0.298989
0.291857
0.281987
0.269296
0.253991
0.236136
0.215985
0.193801
0.169995
0.145071
0.119663
0.0945323
0.0705551
0.0487178
0.0300823
0.0140626
0.00623547
0.0230864
0.0727371
0.129826
0.179259
0.218726
0.249079
0.271267
0.287197
0.297579
0.303668
0.305654
0.304226
0.299353
0.291411
0.280361
0.266452
0.249752
0.230528
0.209024
0.185633
0.16082
0.13518
0.109425
0.0843857
0.0610134
0.0403524
0.0235226
0.00991485
0.00492344
0.0225294
0.0714037
0.128129
0.177728
0.218135
0.249191
0.272367
0.288618
0.299366
0.305117
0.306716
0.304317
0.298386
0.288976
0.27639
0.260735
0.242308
0.221361
0.198293
0.173556
0.147721
0.121464
0.0955727
0.07095
0.0486025
0.0296319
0.0152006
0.00468316
0.00325081
0.0221958
0.0713344
0.128054
0.178235
0.21926
0.251178
0.27472
0.291273
0.301658
0.306876
0.307334
0.303612
0.295902
0.284579
0.269827
0.251993
0.231372
0.208394
0.183528
0.157352
0.130527
0.103813
0.0780689
0.0542478
0.0334007
0.0166591
0.00521911
-0.00156335
0.00124058
0.0224168
0.072359
0.129602
0.180433
0.222267
0.254694
0.278572
0.294858
0.304645
0.308634
0.307529
0.30173
0.291698
0.277745
0.260283
0.239695
0.21647
0.191133
0.164306
0.13667
0.108988
0.0820929
0.0568894
0.0343596
0.0155611
0.00162978
-0.00623615
-0.00869177
-0.00107611
0.0229496
0.0743873
0.13253
0.184246
0.226804
0.259692
0.283535
0.299276
0.307874
0.310131
0.306716
0.298186
0.285044
0.267789
0.246941
0.22308
0.196838
0.168918
0.140074
0.111112
0.0828734
0.0562417
0.0321347
0.0115171
-0.00458937
-0.0150941
-0.0188319
-0.0164654
-0.00362909
0.0237811
0.077277
0.136573
0.189317
0.232515
0.265662
0.289102
0.30383
0.31065
0.31051
0.304062
0.292056
0.275088
0.253874
0.229105
0.201577
0.172115
0.141599
0.110929
0.0810102
0.052742
0.0270089
0.00469218
-0.0133198
-0.0260999
-0.0326552
-0.0318948
-0.0244585
-0.00630891
0.0249603
0.0807171
0.14136
0.194973
0.238755
0.271713
0.294419
0.307406
0.31182
0.30835
0.298043
0.281602
0.26001
0.234101
0.204908
0.173423
0.140722
0.107856
0.0758539
0.0456884
0.0182532
-0.00562244
-0.0251759
-0.039665
-0.0483366
-0.0503624
-0.0447873
-0.0322009
-0.0089713
0.0260524
0.0843465
0.145992
0.200335
0.244024
0.276491
0.297523
0.308196
0.30907
0.301471
0.286179
0.264513
0.237477
0.206419
0.172552
0.137228
0.101714
0.0672295
0.0348841
0.00563404
-0.0196963
-0.0404419
-0.0560318
-0.0659716
-0.0697549
-0.0668011
-0.0563543
-0.0389188
-0.0113899
0.0273145
0.0872834
0.14942
0.203356
0.246421
0.277059
0.295777
0.302679
0.299218
0.286145
0.26514
0.237374
0.204595
0.168283
0.130152
0.091749
0.05456
0.0198942
-0.0111757
-0.0377783
-0.0593105
-0.075339
-0.0856145
-0.0899538
-0.0881942
-0.0800641
-0.0650861
-0.043621
-0.0132719
0.0277127
0.0884303
0.149208
0.201489
0.241848
0.269621
0.284005
0.286219
0.276762
0.257586
0.229981
0.196132
0.157822
0.117192
0.0761342
0.0364584
-0.000265297
-0.0328086
-0.0602055
-0.0818884
-0.0975237
-0.107082
-0.11067
-0.108525
-0.100859
-0.0877871
-0.0691635
-0.045145
-0.0142666
0.0275124
0.0855218
0.142295
0.1895
0.225051
0.246928
0.255583
0.250929
0.234911
0.208795
0.175136
0.135999
0.0939682
0.0513108
0.0101787
-0.027558
-0.0605109
-0.0875901
-0.108263
-0.122268
-0.129779
-0.131145
-0.126956
-0.117841
-0.104448
-0.0872813
-0.0665963
-0.0422542
-0.0140025
0.0246983
0.0755169
0.122813
0.160652
0.186563
0.199913
0.199755
0.187515
0.164208
0.132455
0.0945104
0.0532452
0.0112742
-0.0290013
-0.0654214
-0.0965097
-0.121059
-0.138622
-0.149
-0.152577
-0.149904
-0.141867
-0.129411
-0.113598
-0.0954311
-0.075827
-0.0554525
-0.0338048
-0.0121199
0.0191125
0.0531779
0.0831744
0.103783
0.114896
0.115073
0.104689
0.0842776
0.0558989
0.0217732
-0.0154079
-0.0528353
-0.0881849
-0.119114
-0.144282
-0.162435
-0.173347
-0.176908
-0.173759
-0.164612
-0.150601
-0.132873
-0.112754
-0.0915446
-0.070576
-0.0510893
-0.0341997
-0.0189571
-0.00835258
0.00727817
0.0117515
0.0121368
0.00600103
-0.00481364
-0.0207949
-0.0417869
-0.067236
-0.0952872
-0.124398
-0.151907
-0.176308
-0.195346
-0.20831
-0.214076
-0.212917
-0.204883
-0.190973
-0.172031
-0.149398
-0.124293
-0.0981531
-0.0723435
-0.0483365
-0.0276001
-0.0116706
-0.00208025
0.00258412
-0.00257068
-0.0116408
-0.0572762
-0.102228
-0.145789
-0.18392
-0.215804
-0.243367
-0.265498
-0.283373
-0.295049
-0.301153
-0.300008
-0.292417
-0.277718
-0.257162
-0.231113
-0.201095
-0.168076
-0.133565
-0.0987286
-0.0649372
-0.0334015
-0.00545596
0.0175442
0.0340604
0.0423783
0.0405279
0.0303791
0.00513255
-0.0419138
-0.161995
-0.267327
-0.355917
-0.418701
-0.460717
-0.482139
-0.488933
-0.48065
-0.461899
-0.432235
-0.395265
-0.351252
-0.303145
-0.251859
-0.199712
-0.147832
-0.0978815
-0.0508608
-0.00791356
0.0301058
0.0622501
0.0875625
0.104862
0.112694
0.109179
0.0919346
0.0631716
0.0144516
-0.083948
-0.304037
-0.476426
-0.599969
-0.676102
-0.708212
-0.709542
-0.682148
-0.636459
-0.573832
-0.501978
-0.422519
-0.340886
-0.258841
-0.179842
-0.105301
-0.0370795
0.0240027
0.0771437
0.121955
0.158059
0.185078
0.202435
0.209235
0.204108
0.185049
0.149236
0.0990169
0.0248566
-0.143122
-0.473956
-0.681197
-0.811566
-0.867759
-0.873441
-0.834724
-0.76829
-0.677405
-0.574114
-0.461468
-0.34768
-0.235555
-0.129954
-0.0328007
0.0536931
0.128724
0.191784
0.242875
0.282216
0.310009
0.326365
0.331043
0.323377
0.302052
0.264935
0.208792
0.135572
0.0357356
-0.196925
-0.534011
-0.681211
-0.752416
-0.765669
-0.73396
-0.671301
-0.58453
-0.483581
-0.373699
-0.26206
-0.152616
-0.0498855
0.0437815
0.126252
0.196732
0.254802
0.300717
0.334913
0.358
0.370485
0.372706
0.364648
0.345871
0.315358
0.271381
0.211266
0.135857
0.0387696
