# vtk DataFile Version 3.0
Malha 2D com triângulos e temperatura
ASCII
DATASET UNSTRUCTURED_GRID

POINTS 900 double
0 0 0
0.01 0 0
0.01 0.01 0
0 0.01 0
0.000344828 0 0
0.000689655 0 0
0.00103448 0 0
0.00137931 0 0
0.00172414 0 0
0.00206897 0 0
0.00241379 0 0
0.00275862 0 0
0.00310345 0 0
0.00344828 0 0
0.0037931 0 0
0.00413793 0 0
0.00448276 0 0
0.00482759 0 0
0.00517241 0 0
0.00551724 0 0
0.00586207 0 0
0.0062069 0 0
0.00655172 0 0
0.00689655 0 0
0.00724138 0 0
0.00758621 0 0
0.00793103 0 0
0.00827586 0 0
0.00862069 0 0
0.00896552 0 0
0.00931034 0 0
0.00965517 0 0
0.01 0.000344828 0
0.01 0.000689655 0
0.01 0.00103448 0
0.01 0.00137931 0
0.01 0.00172414 0
0.01 0.00206897 0
0.01 0.00241379 0
0.01 0.00275862 0
0.01 0.00310345 0
0.01 0.00344828 0
0.01 0.0037931 0
0.01 0.00413793 0
0.01 0.00448276 0
0.01 0.00482759 0
0.01 0.00517241 0
0.01 0.00551724 0
0.01 0.00586207 0
0.01 0.0062069 0
0.01 0.00655172 0
0.01 0.00689655 0
0.01 0.00724138 0
0.01 0.00758621 0
0.01 0.00793103 0
0.01 0.00827586 0
0.01 0.00862069 0
0.01 0.00896552 0
0.01 0.00931034 0
0.01 0.00965517 0
0.00965517 0.01 0
0.00931034 0.01 0
0.00896552 0.01 0
0.00862069 0.01 0
0.00827586 0.01 0
0.00793103 0.01 0
0.00758621 0.01 0
0.00724138 0.01 0
0.00689655 0.01 0
0.00655172 0.01 0
0.0062069 0.01 0
0.00586207 0.01 0
0.00551724 0.01 0
0.00517241 0.01 0
0.00482759 0.01 0
0.00448276 0.01 0
0.00413793 0.01 0
0.0037931 0.01 0
0.00344828 0.01 0
0.00310345 0.01 0
0.00275862 0.01 0
0.00241379 0.01 0
0.00206897 0.01 0
0.00172414 0.01 0
0.00137931 0.01 0
0.00103448 0.01 0
0.000689655 0.01 0
0.000344828 0.01 0
0 0.00965517 0
0 0.00931034 0
0 0.00896552 0
0 0.00862069 0
0 0.00827586 0
0 0.00793103 0
0 0.00758621 0
0 0.00724138 0
0 0.00689655 0
0 0.00655172 0
0 0.0062069 0
0 0.00586207 0
0 0.00551724 0
0 0.00517241 0
0 0.00482759 0
0 0.00448276 0
0 0.00413793 0
0 0.0037931 0
0 0.00344828 0
0 0.00310345 0
0 0.00275862 0
0 0.00241379 0
0 0.00206897 0
0 0.00172414 0
0 0.00137931 0
0 0.00103448 0
0 0.000689655 0
0 0.000344828 0
0.000344828 0.00965517 0
0.000344828 0.00931034 0
0.000344828 0.00896552 0
0.000344828 0.00862069 0
0.000344828 0.00827586 0
0.000344828 0.00793103 0
0.000344828 0.00758621 0
0.000344828 0.00724138 0
0.000344828 0.00689655 0
0.000344828 0.00655172 0
0.000344828 0.0062069 0
0.000344828 0.00586207 0
0.000344828 0.00551724 0
0.000344828 0.00517241 0
0.000344828 0.00482759 0
0.000344828 0.00448276 0
0.000344828 0.00413793 0
0.000344828 0.0037931 0
0.000344828 0.00344828 0
0.000344828 0.00310345 0
0.000344828 0.00275862 0
0.000344828 0.00241379 0
0.000344828 0.00206897 0
0.000344828 0.00172414 0
0.000344828 0.00137931 0
0.000344828 0.00103448 0
0.000344828 0.000689655 0
0.000344828 0.000344828 0
0.000689655 0.00965517 0
0.000689655 0.00931034 0
0.000689655 0.00896552 0
0.000689655 0.00862069 0
0.000689655 0.00827586 0
0.000689655 0.00793103 0
0.000689655 0.00758621 0
0.000689655 0.00724138 0
0.000689655 0.00689655 0
0.000689655 0.00655172 0
0.000689655 0.0062069 0
0.000689655 0.00586207 0
0.000689655 0.00551724 0
0.000689655 0.00517241 0
0.000689655 0.00482759 0
0.000689655 0.00448276 0
0.000689655 0.00413793 0
0.000689655 0.0037931 0
0.000689655 0.00344828 0
0.000689655 0.00310345 0
0.000689655 0.00275862 0
0.000689655 0.00241379 0
0.000689655 0.00206897 0
0.000689655 0.00172414 0
0.000689655 0.00137931 0
0.000689655 0.00103448 0
0.000689655 0.000689655 0
0.000689655 0.000344828 0
0.00103448 0.00965517 0
0.00103448 0.00931034 0
0.00103448 0.00896552 0
0.00103448 0.00862069 0
0.00103448 0.00827586 0
0.00103448 0.00793103 0
0.00103448 0.00758621 0
0.00103448 0.00724138 0
0.00103448 0.00689655 0
0.00103448 0.00655172 0
0.00103448 0.0062069 0
0.00103448 0.00586207 0
0.00103448 0.00551724 0
0.00103448 0.00517241 0
0.00103448 0.00482759 0
0.00103448 0.00448276 0
0.00103448 0.00413793 0
0.00103448 0.0037931 0
0.00103448 0.00344828 0
0.00103448 0.00310345 0
0.00103448 0.00275862 0
0.00103448 0.00241379 0
0.00103448 0.00206897 0
0.00103448 0.00172414 0
0.00103448 0.00137931 0
0.00103448 0.00103448 0
0.00103448 0.000689655 0
0.00103448 0.000344828 0
0.00137931 0.00965517 0
0.00137931 0.00931034 0
0.00137931 0.00896552 0
0.00137931 0.00862069 0
0.00137931 0.00827586 0
0.00137931 0.00793103 0
0.00137931 0.00758621 0
0.00137931 0.00724138 0
0.00137931 0.00689655 0
0.00137931 0.00655172 0
0.00137931 0.0062069 0
0.00137931 0.00586207 0
0.00137931 0.00551724 0
0.00137931 0.00517241 0
0.00137931 0.00482759 0
0.00137931 0.00448276 0
0.00137931 0.00413793 0
0.00137931 0.0037931 0
0.00137931 0.00344828 0
0.00137931 0.00310345 0
0.00137931 0.00275862 0
0.00137931 0.00241379 0
0.00137931 0.00206897 0
0.00137931 0.00172414 0
0.00137931 0.00137931 0
0.00137931 0.00103448 0
0.00137931 0.000689655 0
0.00137931 0.000344828 0
0.00172414 0.00965517 0
0.00172414 0.00931034 0
0.00172414 0.00896552 0
0.00172414 0.00862069 0
0.00172414 0.00827586 0
0.00172414 0.00793103 0
0.00172414 0.00758621 0
0.00172414 0.00724138 0
0.00172414 0.00689655 0
0.00172414 0.00655172 0
0.00172414 0.0062069 0
0.00172414 0.00586207 0
0.00172414 0.00551724 0
0.00172414 0.00517241 0
0.00172414 0.00482759 0
0.00172414 0.00448276 0
0.00172414 0.00413793 0
0.00172414 0.0037931 0
0.00172414 0.00344828 0
0.00172414 0.00310345 0
0.00172414 0.00275862 0
0.00172414 0.00241379 0
0.00172414 0.00206897 0
0.00172414 0.00172414 0
0.00172414 0.00137931 0
0.00172414 0.00103448 0
0.00172414 0.000689655 0
0.00172414 0.000344828 0
0.00206897 0.00965517 0
0.00206897 0.00931034 0
0.00206897 0.00896552 0
0.00206897 0.00862069 0
0.00206897 0.00827586 0
0.00206897 0.00793103 0
0.00206897 0.00758621 0
0.00206897 0.00724138 0
0.00206897 0.00689655 0
0.00206897 0.00655172 0
0.00206897 0.0062069 0
0.00206897 0.00586207 0
0.00206897 0.00551724 0
0.00206897 0.00517241 0
0.00206897 0.00482759 0
0.00206897 0.00448276 0
0.00206897 0.00413793 0
0.00206897 0.0037931 0
0.00206897 0.00344828 0
0.00206897 0.00310345 0
0.00206897 0.00275862 0
0.00206897 0.00241379 0
0.00206897 0.00206897 0
0.00206897 0.00172414 0
0.00206897 0.00137931 0
0.00206897 0.00103448 0
0.00206897 0.000689655 0
0.00206897 0.000344828 0
0.00241379 0.00965517 0
0.00241379 0.00931034 0
0.00241379 0.00896552 0
0.00241379 0.00862069 0
0.00241379 0.00827586 0
0.00241379 0.00793103 0
0.00241379 0.00758621 0
0.00241379 0.00724138 0
0.00241379 0.00689655 0
0.00241379 0.00655172 0
0.00241379 0.0062069 0
0.00241379 0.00586207 0
0.00241379 0.00551724 0
0.00241379 0.00517241 0
0.00241379 0.00482759 0
0.00241379 0.00448276 0
0.00241379 0.00413793 0
0.00241379 0.0037931 0
0.00241379 0.00344828 0
0.00241379 0.00310345 0
0.00241379 0.00275862 0
0.00241379 0.00241379 0
0.00241379 0.00206897 0
0.00241379 0.00172414 0
0.00241379 0.00137931 0
0.00241379 0.00103448 0
0.00241379 0.000689655 0
0.00241379 0.000344828 0
0.00275862 0.00965517 0
0.00275862 0.00931034 0
0.00275862 0.00896552 0
0.00275862 0.00862069 0
0.00275862 0.00827586 0
0.00275862 0.00793103 0
0.00275862 0.00758621 0
0.00275862 0.00724138 0
0.00275862 0.00689655 0
0.00275862 0.00655172 0
0.00275862 0.0062069 0
0.00275862 0.00586207 0
0.00275862 0.00551724 0
0.00275862 0.00517241 0
0.00275862 0.00482759 0
0.00275862 0.00448276 0
0.00275862 0.00413793 0
0.00275862 0.0037931 0
0.00275862 0.00344828 0
0.00275862 0.00310345 0
0.00275862 0.00275862 0
0.00275862 0.00241379 0
0.00275862 0.00206897 0
0.00275862 0.00172414 0
0.00275862 0.00137931 0
0.00275862 0.00103448 0
0.00275862 0.000689655 0
0.00275862 0.000344828 0
0.00310345 0.00965517 0
0.00310345 0.00931034 0
0.00310345 0.00896552 0
0.00310345 0.00862069 0
0.00310345 0.00827586 0
0.00310345 0.00793103 0
0.00310345 0.00758621 0
0.00310345 0.00724138 0
0.00310345 0.00689655 0
0.00310345 0.00655172 0
0.00310345 0.0062069 0
0.00310345 0.00586207 0
0.00310345 0.00551724 0
0.00310345 0.00517241 0
0.00310345 0.00482759 0
0.00310345 0.00448276 0
0.00310345 0.00413793 0
0.00310345 0.0037931 0
0.00310345 0.00344828 0
0.00310345 0.00310345 0
0.00310345 0.00275862 0
0.00310345 0.00241379 0
0.00310345 0.00206897 0
0.00310345 0.00172414 0
0.00310345 0.00137931 0
0.00310345 0.00103448 0
0.00310345 0.000689655 0
0.00310345 0.000344828 0
0.00344828 0.00965517 0
0.00344828 0.00931034 0
0.00344828 0.00896552 0
0.00344828 0.00862069 0
0.00344828 0.00827586 0
0.00344828 0.00793103 0
0.00344828 0.00758621 0
0.00344828 0.00724138 0
0.00344828 0.00689655 0
0.00344828 0.00655172 0
0.00344828 0.0062069 0
0.00344828 0.00586207 0
0.00344828 0.00551724 0
0.00344828 0.00517241 0
0.00344828 0.00482759 0
0.00344828 0.00448276 0
0.00344828 0.00413793 0
0.00344828 0.0037931 0
0.00344828 0.00344828 0
0.00344828 0.00310345 0
0.00344828 0.00275862 0
0.00344828 0.00241379 0
0.00344828 0.00206897 0
0.00344828 0.00172414 0
0.00344828 0.00137931 0
0.00344828 0.00103448 0
0.00344828 0.000689655 0
0.00344828 0.000344828 0
0.0037931 0.00965517 0
0.0037931 0.00931034 0
0.0037931 0.00896552 0
0.0037931 0.00862069 0
0.0037931 0.00827586 0
0.0037931 0.00793103 0
0.0037931 0.00758621 0
0.0037931 0.00724138 0
0.0037931 0.00689655 0
0.0037931 0.00655172 0
0.0037931 0.0062069 0
0.0037931 0.00586207 0
0.0037931 0.00551724 0
0.0037931 0.00517241 0
0.0037931 0.00482759 0
0.0037931 0.00448276 0
0.0037931 0.00413793 0
0.0037931 0.0037931 0
0.0037931 0.00344828 0
0.0037931 0.00310345 0
0.0037931 0.00275862 0
0.0037931 0.00241379 0
0.0037931 0.00206897 0
0.0037931 0.00172414 0
0.0037931 0.00137931 0
0.0037931 0.00103448 0
0.0037931 0.000689655 0
0.0037931 0.000344828 0
0.00413793 0.00965517 0
0.00413793 0.00931034 0
0.00413793 0.00896552 0
0.00413793 0.00862069 0
0.00413793 0.00827586 0
0.00413793 0.00793103 0
0.00413793 0.00758621 0
0.00413793 0.00724138 0
0.00413793 0.00689655 0
0.00413793 0.00655172 0
0.00413793 0.0062069 0
0.00413793 0.00586207 0
0.00413793 0.00551724 0
0.00413793 0.00517241 0
0.00413793 0.00482759 0
0.00413793 0.00448276 0
0.00413793 0.00413793 0
0.00413793 0.0037931 0
0.00413793 0.00344828 0
0.00413793 0.00310345 0
0.00413793 0.00275862 0
0.00413793 0.00241379 0
0.00413793 0.00206897 0
0.00413793 0.00172414 0
[...]
CELL_DATA 841
SCALARS Temperatura double 1
LOOKUP_TABLE default
0.000887937
0.00181498
0.00136713
0.00092673
0.000655711
0.000483727
0.000367229
0.000284729
0.000223733
0.000176774
0.000139349
0.000108599
8.25718e-05
5.98612e-05
3.94747e-05
2.08786e-05
4.1364e-06
-1.00576e-05
-2.06087e-05
-2.64694e-05
-2.72079e-05
-2.35376e-05
-1.71221e-05
-9.57593e-06
-1.92727e-06
5.00354e-06
9.84999e-06
9.52742e-06
4.43714e-06
0.000451833
0.00140113
0.00135349
0.00113974
0.000933207
0.000761507
0.000625083
0.000517307
0.000430925
0.000360212
0.000301017
0.000250356
0.000206084
0.000166699
0.000131282
9.95503e-05
7.19871e-05
4.98139e-05
3.45779e-05
2.74144e-05
2.81513e-05
3.44421e-05
4.25318e-05
4.93116e-05
5.29674e-05
5.23777e-05
4.6297e-05
3.12719e-05
1.28479e-05
0.000134984
0.000737546
0.000939336
0.000933392
0.000848521
0.000743673
0.000643942
0.000555877
0.000479455
0.000413019
0.000354702
0.000302868
0.000256269
0.000214102
0.000176038
0.000142284
0.000113658
9.1531e-05
7.74144e-05
7.21807e-05
7.50394e-05
8.23578e-05
8.96766e-05
9.3891e-05
9.30037e-05
8.58376e-05
7.13754e-05
4.57891e-05
1.90732e-05
3.91372e-05
0.000336365
0.000611354
0.000696891
0.000690025
0.00064124
0.000579525
0.000517029
0.000457829
0.000403005
0.000352515
0.00030597
0.000263036
0.000223619
0.000187942
0.000156589
0.000130538
0.000111112
9.96154e-05
9.66558e-05
0.000101107
0.000108749
0.000115143
0.000117535
0.000113942
0.000103246
8.45527e-05
5.3129e-05
2.32931e-05
1.28692e-05
0.000155832
0.000395744
0.000509223
0.000542933
0.00053035
0.000496842
0.000455549
0.000412141
0.000369068
0.000327378
0.000287549
0.000249938
0.000215015
0.000183431
0.000156026
0.000133815
0.000117959
0.000109512
0.000108859
0.000114723
0.000122638
0.000128358
0.000129542
0.000124405
0.000111965
9.14026e-05
5.67832e-05
2.65154e-05
4.92966e-06
7.785e-05
0.000256685
0.000371595
0.000423121
0.000431784
0.000417312
0.00039167
0.0003608
0.000327681
0.000293925
0.000260534
0.000228343
0.000198226
0.000171143
0.000148105
0.0001301
0.00011806
0.000112801
0.000114536
0.000121845
0.000130051
0.000135172
0.000135415
0.000129366
0.000116211
9.51365e-05
5.87748e-05
2.93378e-05
1.53749e-06
4.07446e-05
0.000164274
0.000270475
0.000327833
0.000348497
0.000346431
0.000331823
0.000310374
0.00028518
0.000258093
0.000230409
0.000203265
0.000177805
0.000155196
0.00013656
0.000122831
0.000114704
0.000112762
0.000117035
0.000125833
0.000134221
0.00013865
0.000138049
0.000131476
0.000118272
9.75197e-05
6.02072e-05
3.20822e-05
-1.95709e-07
2.11843e-05
0.000103478
0.000195355
0.000252208
0.000278936
0.000284506
0.000277356
0.000262746
0.000243681
0.000222061
0.000199323
0.000176768
0.000155705
0.000137424
0.000123101
0.000113635
0.000109518
0.000111038
0.000117961
0.000128117
0.000136453
0.000140105
0.000138801
0.000132093
0.000119389
9.95275e-05
6.16581e-05
3.49068e-05
-1.19141e-06
9.8746e-06
6.40734e-05
0.000139159
0.00019185
0.000220454
0.00023012
0.000227714
0.000217929
0.000203548
0.000186412
0.000167981
0.000149623
0.000132716
0.000118603
0.000108479
0.000103235
0.000103207
0.000108293
0.000117868
0.000129067
0.000137067
0.00014
0.000138346
0.00013203
0.00012037
0.000101788
6.34457e-05
3.78795e-05
-1.80447e-06
2.82788e-06
3.77146e-05
9.61332e-05
0.000142449
0.00016998
0.000181191
0.000181556
0.000175116
0.000164363
0.000151003
0.000136441
0.000122025
0.000109123
9.90654e-05
9.30377e-05
9.19276e-05
9.59671e-05
0.000104624
0.000116727
0.000128524
0.000136007
0.000138603
0.00013728
0.000132078
0.000121997
0.00010487
6.58028e-05
4.10229e-05
-2.10654e-06
-1.56244e-06
1.93935e-05
6.17302e-05
0.000100025
0.000124391
0.000135366
0.000137138
0.000133042
0.000125236
0.000115244
0.000104353
9.38198e-05
8.49203e-05
7.89066e-05
7.69053e-05
7.9774e-05
8.76887e-05
9.97654e-05
0.000114128
0.000126181
0.000133416
0.000136537
0.000136583
0.000133347
0.000125267
0.000109444
6.89766e-05
4.43388e-05
-2.11581e-06
-4.09871e-06
5.99959e-06
3.23899e-05
6.1087e-05
8.06901e-05
9.01627e-05
9.24182e-05
9.00435e-05
8.4823e-05
7.80672e-05
7.0905e-05
6.44314e-05
5.97517e-05
5.79506e-05
6.00186e-05
6.67102e-05
7.81379e-05
9.32354e-05
0.000109139
0.000121883
0.000130159
0.000135219
0.000137869
0.000137392
0.000131446
0.000116298
7.32536e-05
4.78151e-05
-1.89222e-06
-5.43903e-06
-4.70723e-06
5.5074e-06
2.28316e-05
3.61677e-05
4.30772e-05
4.51298e-05
4.40722e-05
4.12618e-05
3.77833e-05
3.45974e-05
3.26035e-05
3.26522e-05
3.55477e-05
4.20331e-05
5.26725e-05
6.74721e-05
8.53732e-05
0.000102937
0.000117419
0.000128328
0.000136817
0.000143176
0.000145952
0.000141831
0.000126171
7.8888e-05
5.14133e-05
-1.51574e-06
-6.18772e-06
-1.44128e-05
-2.0755e-05
-1.66272e-05
-1.11198e-05
-7.82773e-06
-6.6264e-06
-6.77967e-06
-7.42898e-06
-7.68296e-06
-6.68672e-06
-3.7116e-06
1.79874e-06
1.02661e-05
2.20389e-05
3.73678e-05
5.61723e-05
7.71754e-05
9.76347e-05
0.000115466
0.00013057
0.000143635
0.000154296
0.000160262
0.000157139
0.000139306
8.58778e-05
5.50229e-05
-1.03091e-06
-6.73275e-06
-2.40426e-05
-4.72204e-05
-5.73582e-05
-6.08121e-05
-6.20036e-05
-6.23321e-05
-6.22278e-05
-6.13479e-05
-5.88798e-05
-5.39609e-05
-4.5943e-05
-3.44697e-05
-1.94768e-05
-1.09832e-06
2.04627e-05
4.49633e-05
7.09346e-05
9.61834e-05
0.00011905
0.000139448
0.000157484
0.000172148
0.000180396
0.000176806
0.000154678
9.34513e-05
5.83495e-05
-4.75026e-07
-7.23692e-06
-3.35221e-05
-7.26658e-05
-9.58493e-05
-0.000107819
-0.000113527
-0.000115799
-0.00011616
-0.00011465
-0.000110412
-0.000102576
-9.04811e-05
-7.37012e-05
-5.22349e-05
-2.65181e-05
2.80602e-06
3.48726e-05
6.81041e-05
0.000100213
0.000129777
0.00015625
0.000179032
0.00019651
0.000205152
0.000198746
0.000169313
9.96363e-05
6.07715e-05
3.9503e-09
-7.93399e-06
-4.24964e-05
-9.53743e-05
-0.000128313
-0.000146481
-0.000154964
-0.000157769
-0.000157454
-0.000154817
-0.000149468
-0.000140441
-0.000126606
-0.000107023
-8.12636e-05
-4.96e-05
-1.30238e-05
2.69939e-05
6.84727e-05
0.000109093
0.000146846
0.000180096
0.000207209
0.000225919
0.000232536
0.000220329
0.000180819
0.000103831
6.19645e-05
2.2586e-07
-9.53683e-06
-5.23965e-05
-0.000116851
-0.000156992
-0.000179506
-0.000189557
-0.000192154
-0.000190651
-0.000186413
-0.000179452
-0.000168938
-0.000153646
-0.000132388
-0.000104347
-6.92949e-05
-2.77654e-05
1.89696e-05
6.89324e-05
0.000119261
0.000166528
0.000207316
0.000238532
0.00025724
0.000259823
0.000239214
0.000190101
0.000107559
6.21825e-05
1.65494e-07
-1.27307e-05
-6.55473e-05
-0.000139934
-0.000185788
-0.000211199
-0.000221909
-0.000223894
-0.000221096
-0.000215273
-0.000206745
-0.000194889
-0.00017856
-0.000156476
-0.000127522
-9.09119e-05
-4.63574e-05
5.71471e-06
6.37697e-05
0.000124335
0.000182068
0.000231135
0.000266641
0.000285148
0.000283418
0.000254408
0.000198735
0.000111789
6.16937e-05
-2.34604e-07
-1.84819e-05
-8.51181e-05
-0.000168854
-0.000219159
-0.000245927
-0.000256264
-0.000257126
-0.000252872
-0.000245512
-0.000235582
-0.000222654
-0.000205703
-0.000183454
-0.000154625
-0.00011801
-7.25092e-05
-1.73558e-05
4.69732e-05
0.000116679
0.00018441
0.000241832
0.000282178
0.000301564
0.000297517
0.000263883
0.000205333
0.000115822
6.054e-05
-1.12152e-06
-2.83652e-05
-0.000115342
-0.000208454
-0.000261597
-0.000287724
-0.000296236
-0.00029509
-0.000288884
-0.000279735
-0.000268293
-0.000254255
-0.00023672
-0.000214495
-0.000186309
-0.000150819
-0.000106404
-5.1073e-05
1.59837e-05
9.06194e-05
0.000164317
0.000227988
0.000273602
0.000296105
0.000293446
0.000261694
0.000205492
0.000117366
5.84639e-05
-2.90408e-06
-4.53944e-05
-0.000162121
-0.000263422
-0.000317133
-0.000339947
-0.000344612
-0.000340061
-0.000330927
-0.000319275
-0.000305744
-0.000290055
-0.00027137
-0.000248601
-0.000220609
-0.00018617
-0.000143488
-8.97951e-05
-2.43556e-05
4.75127e-05
0.00011876
0.000182535
0.000231635
0.000259971
0.000264295
0.000241902
0.000194589
0.00011353
5.50038e-05
-6.61949e-06
-7.55569e-05
-0.0002331
-0.000338291
-0.000388983
-0.000404985
-0.000403137
-0.000393195
-0.000379603
-0.000364219
-0.000347517
-0.000329103
-0.000308086
-0.000283396
-0.000253997
-0.000218819
-0.000176127
-0.000123328
-6.24907e-05
2.12873e-07
6.11426e-05
0.000117447
0.000164994
0.000198488
0.000213034
0.000204653
0.000171782
0.000103667
5.01107e-05
-1.45939e-05
-0.000129579
-0.000331702
-0.000437432
-0.000479435
-0.000483985
-0.00047214
-0.000454095
-0.000433907
-0.000413056
-0.00039168
-0.0003691
-0.00034421
-0.000315803
-0.000282799
-0.000244191
-0.000198591
-0.000145023
-8.96054e-05
-3.74159e-05
1.06034e-05
5.52236e-05
9.59591e-05
0.000129805
0.000151957
0.000157122
0.000140811
8.98579e-05
4.4251e-05
-3.3432e-05
-0.000229743
-0.000468953
-0.000568069
-0.000590675
-0.000576433
-0.000549548
-0.000519673
-0.000490091
-0.000461634
-0.000433882
-0.00040569
-0.000375573
-0.000342028
-0.000303795
-0.000259941
-0.000209694
-0.00015543
-0.000104768
-6.13585e-05
-2.46885e-05
8.13837e-06
3.94975e-05
6.9164e-05
9.39632e-05
0.000108665
0.000107091
7.42659e-05
3.78611e-05
-8.24284e-05
-0.000418812
-0.000666308
-0.00073667
-0.000721116
-0.000676554
-0.000627452
-0.000581002
-0.000538842
-0.000500657
-0.000465164
-0.000430574
-0.000394904
-0.000356263
-0.000313146
-0.000264805
-0.000211328
-0.000158175
-0.000111823
-7.50218e-05
-4.67362e-05
-2.334e-05
-9.20438e-07
2.25352e-05
4.60078e-05
6.54913e-05
7.45776e-05
5.7931e-05
3.10566e-05
-0.000217991
-0.000758699
-0.000938787
-0.000931983
-0.000850641
-0.000761399
-0.000682401
-0.000615341
-0.000558686
-0.00051018
-0.000467327
-0.000427574
-0.000388435
-0.000347665
-0.00030356
-0.000255436
-0.000204667
-0.000156887
-0.000116861
-8.66454e-05
-6.51679e-05
-4.88984e-05
-3.3498e-05
-1.57336e-05
5.09469e-06
2.653e-05
4.28498e-05
3.97548e-05
2.33445e-05
-0.00056314
-0.00132486
-0.0012546
-0.00107422
-0.000898744
-0.000758906
-0.00065149
-0.00056814
-0.000502263
-0.000448987
-0.000404545
-0.000365858
-0.000330286
-0.000295568
-0.000259968
-0.000222981
-0.000186285
-0.000153397
-0.000127163
-0.000108621
-9.65255e-05
-8.76834e-05
-7.80246e-05
-6.40548e-05
-4.42118e-05
-1.98219e-05
4.2354e-06
1.52786e-05
1.33108e-05
-0.000950656
-0.00168879
-0.00117564
-0.000820644
-0.000609267
-0.00047563
-0.00038553
-0.000321802
-0.000275024
-0.000239687
-0.000212399
-0.00019092
-0.000173609
-0.000159154
-0.000146488
-0.000135303
-0.000126048
-0.000119619
-0.000116497
-0.000116329
-0.000117608
-0.000117864
-0.000114255
-0.000104297
-8.66866e-05
-6.20903e-05
-3.39749e-05
-1.13267e-05
1.139e-06
