# vtk DataFile Version 3.0
Malha 2D com triângulos e temperatura
ASCII
DATASET UNSTRUCTURED_GRID

POINTS 961 double
0 0 0
1 0 0
1 1 0
0 1 0
0.0333333 0 0
0.0666667 0 0
0.1 0 0
0.133333 0 0
0.166667 0 0
0.2 0 0
0.233333 0 0
0.266667 0 0
0.3 0 0
0.333333 0 0
0.366667 0 0
0.4 0 0
0.433333 0 0
0.466667 0 0
0.5 0 0
0.533333 0 0
0.566667 0 0
0.6 0 0
0.633333 0 0
0.666667 0 0
0.7 0 0
0.733333 0 0
0.766667 0 0
0.8 0 0
0.833333 0 0
0.866667 0 0
0.9 0 0
0.933333 0 0
0.966667 0 0
1 0.0333333 0
1 0.0666667 0
1 0.1 0
1 0.133333 0
1 0.166667 0
1 0.2 0
1 0.233333 0
1 0.266667 0
1 0.3 0
1 0.333333 0
1 0.366667 0
1 0.4 0
1 0.433333 0
1 0.466667 0
1 0.5 0
1 0.533333 0
1 0.566667 0
1 0.6 0
1 0.633333 0
1 0.666667 0
1 0.7 0
1 0.733333 0
1 0.766667 0
1 0.8 0
1 0.833333 0
1 0.866667 0
1 0.9 0
1 0.933333 0
1 0.966667 0
0.966667 1 0
0.933333 1 0
0.9 1 0
0.866667 1 0
0.833333 1 0
0.8 1 0
0.766667 1 0
0.733333 1 0
0.7 1 0
0.666667 1 0
0.633333 1 0
0.6 1 0
0.566667 1 0
0.533333 1 0
0.5 1 0
0.466667 1 0
0.433333 1 0
0.4 1 0
0.366667 1 0
0.333333 1 0
0.3 1 0
0.266667 1 0
0.233333 1 0
0.2 1 0
0.166667 1 0
0.133333 1 0
0.1 1 0
0.0666667 1 0
0.0333333 1 0
0 0.966667 0
0 0.933333 0
0 0.9 0
0 0.866667 0
0 0.833333 0
0 0.8 0
0 0.766667 0
0 0.733333 0
0 0.7 0
0 0.666667 0
0 0.633333 0
0 0.6 0
0 0.566667 0
0 0.533333 0
0 0.5 0
0 0.466667 0
0 0.433333 0
0 0.4 0
0 0.366667 0
0 0.333333 0
0 0.3 0
0 0.266667 0
0 0.233333 0
0 0.2 0
0 0.166667 0
0 0.133333 0
0 0.1 0
0 0.0666667 0
0 0.0333333 0
0.0333333 0.0333333 0
0.0333333 0.0666667 0
0.0333333 0.1 0
0.0333333 0.133333 0
0.0333333 0.166667 0
0.0333333 0.2 0
0.0333333 0.233333 0
0.0333333 0.266667 0
0.0333333 0.3 0
0.0333333 0.333333 0
0.0333333 0.366667 0
0.0333333 0.4 0
0.0333333 0.433333 0
0.0333333 0.466667 0
0.0333333 0.5 0
0.0333333 0.533333 0
0.0333333 0.566667 0
0.0333333 0.6 0
0.0333333 0.633333 0
0.0333333 0.666667 0
0.0333333 0.7 0
0.0333333 0.733333 0
0.0333333 0.766667 0
0.0333333 0.8 0
0.0333333 0.833333 0
0.0333333 0.866667 0
0.0333333 0.9 0
0.0333333 0.933333 0
0.0333333 0.966667 0
0.0666667 0.0333333 0
0.0666667 0.0666667 0
0.0666667 0.1 0
0.0666667 0.133333 0
0.0666667 0.166667 0
0.0666667 0.2 0
0.0666667 0.233333 0
0.0666667 0.266667 0
0.0666667 0.3 0
0.0666667 0.333333 0
0.0666667 0.366667 0
0.0666667 0.4 0
0.0666667 0.433333 0
0.0666667 0.466667 0
0.0666667 0.5 0
0.0666667 0.533333 0
0.0666667 0.566667 0
0.0666667 0.6 0
0.0666667 0.633333 0
0.0666667 0.666667 0
0.0666667 0.7 0
0.0666667 0.733333 0
0.0666667 0.766667 0
0.0666667 0.8 0
0.0666667 0.833333 0
0.0666667 0.866667 0
0.0666667 0.9 0
0.0666667 0.933333 0
0.0666667 0.966667 0
0.1 0.0333333 0
0.1 0.0666667 0
0.1 0.1 0
0.1 0.133333 0
0.1 0.166667 0
0.1 0.2 0
0.1 0.233333 0
0.1 0.266667 0
0.1 0.3 0
0.1 0.333333 0
0.1 0.366667 0
0.1 0.4 0
0.1 0.433333 0
0.1 0.466667 0
0.1 0.5 0
0.1 0.533333 0
0.1 0.566667 0
0.1 0.6 0
0.1 0.633333 0
0.1 0.666667 0
0.1 0.7 0
0.1 0.733333 0
0.1 0.766667 0
0.1 0.8 0
0.1 0.833333 0
0.1 0.866667 0
0.1 0.9 0
0.1 0.933333 0
0.1 0.966667 0
0.133333 0.0333333 0
0.133333 0.0666667 0
0.133333 0.1 0
0.133333 0.133333 0
0.133333 0.166667 0
0.133333 0.2 0
0.133333 0.233333 0
0.133333 0.266667 0
0.133333 0.3 0
0.133333 0.333333 0
0.133333 0.366667 0
0.133333 0.4 0
0.133333 0.433333 0
0.133333 0.466667 0
0.133333 0.5 0
0.133333 0.533333 0
0.133333 0.566667 0
0.133333 0.6 0
0.133333 0.633333 0
0.133333 0.666667 0
0.133333 0.7 0
0.133333 0.733333 0
0.133333 0.766667 0
0.133333 0.8 0
0.133333 0.833333 0
0.133333 0.866667 0
0.133333 0.9 0
0.133333 0.933333 0
0.133333 0.966667 0
0.166667 0.0333333 0
0.166667 0.0666667 0
0.166667 0.1 0
0.166667 0.133333 0
0.166667 0.166667 0
0.166667 0.2 0
0.166667 0.233333 0
0.166667 0.266667 0
0.166667 0.3 0
0.166667 0.333333 0
0.166667 0.366667 0
0.166667 0.4 0
0.166667 0.433333 0
0.166667 0.466667 0
0.166667 0.5 0
0.166667 0.533333 0
0.166667 0.566667 0
0.166667 0.6 0
0.166667 0.633333 0
0.166667 0.666667 0
0.166667 0.7 0
0.166667 0.733333 0
0.166667 0.766667 0
0.166667 0.8 0
0.166667 0.833333 0
0.166667 0.866667 0
0.166667 0.9 0
0.166667 0.933333 0
0.166667 0.966667 0
0.2 0.0333333 0
0.2 0.0666667 0
0.2 0.1 0
0.2 0.133333 0
0.2 0.166667 0
0.2 0.2 0
0.2 0.233333 0
0.2 0.266667 0
0.2 0.3 0
0.2 0.333333 0
0.2 0.366667 0
0.2 0.4 0
0.2 0.433333 0
0.2 0.466667 0
0.2 0.5 0
0.2 0.533333 0
0.2 0.566667 0
0.2 0.6 0
0.2 0.633333 0
0.2 0.666667 0
0.2 0.7 0
0.2 0.733333 0
0.2 0.766667 0
0.2 0.8 0
0.2 0.833333 0
0.2 0.866667 0
0.2 0.9 0
0.2 0.933333 0
0.2 0.966667 0
0.233333 0.0333333 0
0.233333 0.0666667 0
0.233333 0.1 0
0.233333 0.133333 0
0.233333 0.166667 0
0.233333 0.2 0
0.233333 0.233333 0
0.233333 0.266667 0
0.233333 0.3 0
0.233333 0.333333 0
0.233333 0.366667 0
0.233333 0.4 0
0.233333 0.433333 0
0.233333 0.466667 0
0.233333 0.5 0
0.233333 0.533333 0
0.233333 0.566667 0
0.233333 0.6 0
0.233333 0.633333 0
0.233333 0.666667 0
0.233333 0.7 0
0.233333 0.733333 0
0.233333 0.766667 0
0.233333 0.8 0
0.233333 0.833333 0
0.233333 0.866667 0
0.233333 0.9 0
0.233333 0.933333 0
0.233333 0.966667 0
0.266667 0.0333333 0
0.266667 0.0666667 0
0.266667 0.1 0
0.266667 0.133333 0
0.266667 0.166667 0
0.266667 0.2 0
0.266667 0.233333 0
0.266667 0.266667 0
0.266667 0.3 0
0.266667 0.333333 0
0.266667 0.366667 0
0.266667 0.4 0
0.266667 0.433333 0
0.266667 0.466667 0
0.266667 0.5 0
0.266667 0.533333 0
0.266667 0.566667 0
0.266667 0.6 0
0.266667 0.633333 0
0.266667 0.666667 0
0.266667 0.7 0
0.266667 0.733333 0
0.266667 0.766667 0
0.266667 0.8 0
0.266667 0.833333 0
0.266667 0.866667 0
0.266667 0.9 0
0.266667 0.933333 0
0.266667 0.966667 0
0.3 0.0333333 0
0.3 0.0666667 0
0.3 0.1 0
0.3 0.133333 0
0.3 0.166667 0
0.3 0.2 0
0.3 0.233333 0
0.3 0.266667 0
0.3 0.3 0
0.3 0.333333 0
0.3 0.366667 0
0.3 0.4 0
0.3 0.433333 0
0.3 0.466667 0
0.3 0.5 0
0.3 0.533333 0
0.3 0.566667 0
0.3 0.6 0
0.3 0.633333 0
0.3 0.666667 0
0.3 0.7 0
0.3 0.733333 0
0.3 0.766667 0
0.3 0.8 0
0.3 0.833333 0
0.3 0.866667 0
0.3 0.9 0
0.3 0.933333 0
0.3 0.966667 0
0.333333 0.0333333 0
0.333333 0.0666667 0
0.333333 0.1 0
0.333333 0.133333 0
0.333333 0.166667 0
0.333333 0.2 0
0.333333 0.233333 0
0.333333 0.266667 0
0.333333 0.3 0
0.333333 0.333333 0
0.333333 0.366667 0
0.333333 0.4 0
0.333333 0.433333 0
0.333333 0.466667 0
0.333333 0.5 0
0.333333 0.533333 0
0.333333 0.566667 0
0.333333 0.6 0
0.333333 0.633333 0
0.333333 0.666667 0
0.333333 0.7 0
0.333333 0.733333 0
0.333333 0.766667 0
0.333333 0.8 0
0.333333 0.833333 0
0.333333 0.866667 0
0.333333 0.9 0
0.333333 0.933333 0
0.333333 0.966667 0
0.366667 0.0333333 0
0.366667 0.0666667 0
0.366667 0.1 0
0.366667 0.133333 0
0.366667 0.166667 0
0.366667 0.2 0
0.366667 0.233333 0
0.366667 0.266667 0
0.366667 0.3 0
0.366667 0.333333 0
0.366667 0.366667 0
0.366667 0.4 0
0.366667 0.433333 0
0.366667 0.466667 0
0.366667 0.5 0
0.366667 0.533333 0
0.366667 0.566667 0
0.366667 0.6 0
0.366667 0.633333 0
0.366667 0.666667 0
0.366667 0.7 0
0.366667 0.733333 0
0.366667 0.766667 0
0.366667 0.8 0
0.366667 0.833333 0
0.366667 0.866667 0
0.366667 0.9 0
0.366667 0.933333 0
0.366667 0.966667 0
0.4 0.0333333 0
0.4 0.0666667 0
0.4 0.1 0
0.4 0.133333 0
0.4 0.166667 0
0.4 0.2 0
0.4 0.233333 0
0.4 0.266667 0
0.4 0.3 0
0.4 0.333333 0
0.4 0.366667 0
0.4 0.4 0
0.4 0.433333 0
0.4 0.466667 0
0.4 0.5 0
0.4 0.533333 0
0.4 0.566667 0
0.4 0.6 0
0.4 0.633333 0
0.4 0.666667 0
0.4 0.7 0
0.4 0.733333 0
0.4 0.766667 0
0.4 0.8 0
0.4 0.833333 0
0.4 0.866667 0
0.4 0.9 0
0.4 0.933333 0
0.4 0.966667 0
0.433333 0.0333333 0
0.433333 0.0666667 0
0.433333 0.1 0
0.433333 0.133333 0
0.433333 0.166667 0
0.433333 0.2 0
0.433333 0.233333 0
0.433333 0.266667 0
0.433333 0.3 0
0.433333 0.333333 0
0.433333 0.366667 0
0.433333 0.4 0
0.433333 0.433333 0
0.433333 0.466667 0
0.433333 0.5 0
0.433333 0.533333 0
0.433333 0.566667 0
0.433333 0.6 0
0.433333 0.633333 0
0.433333 0.666667 0
0.433333 0.7 0
0.433333 0.733333 0
0.433333 0.766667 0
0.433333 0.8 0
0.433333 0.833333 0
0.433333 0.866667 0
0.433333 0.9 0
0.433333 0.933333 0
0.433333 0.966667 0
0.466667 0.0333333 0
0.466667 0.0666667 0
0.466667 0.1 0
0.466667 0.133333 0
0.466667 0.166667 0
0.466667 0.2 0
0.466667 0.233333 0
0.466667 0.266667 0
0.466667 0.3 0
0.466667 0.333333 0
0.466667 0.366667 0
0.466667 0.4 0
0.466667 0.433333 0
0.466667 0.466667 0
0.466667 0.5 0
0.466667 0.533333 0
0.466667 0.566667 0
0.466667 0.6 0
0.466667 0.633333 0
0.466667 0.666667 0
0.466667 0.7 0
0.466667 0.733333 0
0.466667 0.766667 0
0.466667 0.8 0
0.466667 0.833333 0
0.466667 0.866667 0
0.466667 0.9 0
0.466667 0.933333 0
0.466667 0.966667 0
0.5 0.0333333 0
0.5 0.0666667 0
0.5 0.1 0
0.5 0.133333 0
0.5 0.166667 0
0.5 0.2 0
0.5 0.233333 0
0.5 0.266667 0
0.5 0.3 0
0.5 0.333333 0
0.5 0.366667 0
0.5 0.4 0
0.5 0.433333 0
0.5 0.466667 0
0.5 0.5 0
0.5 0.533333 0
0.5 0.566667 0
0.5 0.6 0
0.5 0.633333 0
0.5 0.666667 0
0.5 0.7 0
0.5 0.733333 0
0.5 0.766667 0
0.5 0.8 0
0.5 0.833333 0
0.5 0.866667 0
0.5 0.9 0
0.5 0.933333 0
0.5 0.966667 0
0.533333 0.0333333 0
0.533333 0.0666667 0
0.533333 0.1 0
0.533333 0.133333 0
0.533333 0.166667 0
0.533333 0.2 0
0.533333 0.233333 0
0.533333 0.266667 0
0.533333 0.3 0
0.533333 0.333333 0
0.533333 0.366667 0
0.533333 0.4 0
0.533333 0.433333 0
0.533333 0.466667 0
0.533333 0.5 0
0.533333 0.533333 0
0.533333 0.566667 0
0.533333 0.6 0
0.533333 0.633333 0
0.533333 0.666667 0
0.533333 0.7 0
0.533333 0.733333 0
0.533333 0.766667 0
0.533333 0.8 0
0.533333 0.833333 0
0.533333 0.866667 0
0.533333 0.9 0
0.533333 0.933333 0
0.533333 0.966667 0
0.566667 0.0333333 0
0.566667 0.0666667 0
0.566667 0.1 0
0.566667 0.133333 0
0.566667 0.166667 0
0.566667 0.2 0
0.566667 0.233333 0
0.566667 0.266667 0
0.566667 0.3 0
0.566667 0.333333 0
0.566667 0.366667 0
0.566667 0.4 0
0.566667 0.433333 0
0.566667 0.466667 0
0.566667 0.5 0
0.566667 0.533333 0
0.566667 0.566667 0
0.566667 0.6 0
0.566667 0.633333 0
0.566667 0.666667 0
0.566667 0.7 0
0.566667 0.733333 0
0.566667 0.766667 0
0.566667 0.8 0
0.566667 0.833333 0
0.566667 0.866667 0
0.566667 0.9 0
0.566667 0.933333 0
0.566667 0.966667 0
0.6 0.0333333 0
0.6 0.0666667 0
0.6 0.1 0
0.6 0.133333 0
[...]
CELL_DATA 900
SCALARS Temperatura double 1
LOOKUP_TABLE default
0.00755487
0.0135056
0.0225173
0.0314526
0.0400084
0.0482561
0.0562572
0.0640634
0.0717161
0.0792478
0.0866819
0.0940336
0.10131
0.108511
0.115628
0.122648
0.129552
0.136313
0.142905
0.149298
0.155464
0.161377
0.167024
0.172399
0.177508
0.182318
0.186504
0.188235
0.186022
0.153286
0.0088934
0.016564
0.0276716
0.0387245
0.0492948
0.0594779
0.0693507
0.0789757
0.0884027
0.0976695
0.106802
0.115816
0.124714
0.13349
0.142125
0.150591
0.158845
0.166833
0.174487
0.181717
0.188409
0.194404
0.199468
0.203216
0.204955
0.203307
0.195364
0.174964
0.13646
0.0898537
0.00870525
0.0161703
0.0269831
0.0377739
0.0480969
0.0580382
0.0676694
0.077049
0.0862224
0.0952228
0.104071
0.112775
0.12133
0.129719
0.13791
0.145853
0.153482
0.160706
0.167406
0.173421
0.178532
0.182421
0.184621
0.184399
0.180571
0.171189
0.153163
0.122315
0.0788559
0.0436819
0.00839972
0.0155924
0.0260094
0.0364114
0.0463625
0.0559406
0.065211
0.0742263
0.083026
0.0916368
0.100072
0.108332
0.1164
0.124246
0.13182
0.139049
0.145837
0.152053
0.157524
0.162019
0.165221
0.166695
0.165825
0.161736
0.153192
0.138541
0.1159
0.0841547
0.0473467
0.0229823
0.00799744
0.0148427
0.0247547
0.0346515
0.0441159
0.0532186
0.0620181
0.0705601
0.0788776
0.0869897
0.0949019
0.102604
0.110069
0.117252
0.124085
0.130473
0.136292
0.141377
0.145512
0.148415
0.149717
0.148932
0.145429
0.138403
0.126892
0.109912
0.0868918
0.0586787
0.0301179
0.0133795
0.00750756
0.0139322
0.0232331
0.0325166
0.0413892
0.0499144
0.0581436
0.0661154
0.0738558
0.0813765
0.0886747
0.0957312
0.102508
0.108948
0.114967
0.120454
0.125264
0.129209
0.132049
0.133483
0.133135
0.130541
0.125154
0.116364
0.103588
0.0864812
0.065357
0.0418586
0.0202323
0.00850789
0.00693738
0.0128731
0.0214642
0.0300354
0.038221
0.0460773
0.0536484
0.0609661
0.0680494
0.0749033
0.0815177
0.0878654
0.0939005
0.0995551
0.104737
0.109323
0.113157
0.116043
0.11774
0.117954
0.116341
0.112507
0.106036
0.0965422
0.0837849
0.0678665
0.0495359
0.030544
0.0141977
0.00577602
0.00629441
0.0116791
0.0194707
0.0272404
0.0346545
0.0417616
0.048599
0.0551919
0.0615531
0.0676818
0.0735621
0.0791615
0.0844284
0.0892901
0.0936491
0.0973804
0.100328
0.1023
0.103069
0.102374
0.0999215
0.095409
0.0885574
0.0791765
0.0672702
0.0531885
0.0378108
0.0226919
0.01028
0.00409858
0.00558662
0.0103651
0.0172777
0.0241673
0.030736
0.0370251
0.0430649
0.048875
0.0544631
0.0598238
0.0649375
0.0697688
0.0742644
0.0783508
0.0819321
0.0848875
0.0870697
0.0883037
0.0883883
0.0871022
0.0842154
0.0795131
0.072834
0.0641303
0.0535515
0.0415454
0.0289532
0.0170434
0.00758907
0.00298734
0.00482243
0.00894666
0.0149113
0.0208531
0.0265136
0.0319266
0.0371166
0.0420979
0.0468742
0.0514374
0.0557663
0.0598254
0.063563
0.0669095
0.0697756
0.0720512
0.0736048
0.0742844
0.0739217
0.0723398
0.0693685
0.0648678
0.0587635
0.0510966
0.0420825
0.0321718
0.0220908
0.0128249
0.0056436
0.00220305
0.00401048
0.00743985
0.0123984
0.0173357
0.0220357
0.0265255
0.0308237
0.0349407
0.0388773
0.0426242
0.0461609
0.0494543
0.0524575
0.0551087
0.0573296
0.0590255
0.0600853
0.060384
0.0597879
0.058163
0.05539
0.0513858
0.0461327
0.039715
0.0323584
0.0244633
0.0166147
0.00955045
0.00416845
0.00161809
0.00315952
0.00586092
0.00976613
0.013653
0.0173508
0.0208798
0.024254
0.0274802
0.0305577
0.0334776
0.0362217
0.0387618
0.0410587
0.0430612
0.0447054
0.0459153
0.0466029
0.046672
0.046022
0.0445572
0.0421989
0.0389027
0.0346811
0.0296283
0.0239448
0.0179537
0.0120973
0.0069051
0.00299685
0.00115888
0.00227831
0.0042261
0.00704143
0.00984269
0.0125063
0.0150465
0.0174727
0.0197893
0.021995
0.0240825
0.0260376
0.0278387
0.0294565
0.0308526
0.0319802
0.0327836
0.0331997
0.0331606
0.032597
0.0314456
0.0296582
0.0272144
0.0241364
0.0205055
0.0164761
0.012282
0.00823028
0.00467538
0.00202145
0.00077972
0.00137557
0.00255152
0.00425104
0.00594169
0.0075487
0.00908047
0.0105425
0.0119371
0.0132633
0.0145161
0.0156868
0.0167617
0.0177226
0.018546
0.0192031
0.0196602
0.0198794
0.0198203
0.0194427
0.0187107
0.0175987
0.0160989
0.0142299
0.0120457
0.00964251
0.00716136
0.0047823
0.00270858
0.00116834
0.00044996
0.000459954
0.000853144
0.00142137
0.00198656
0.0025237
0.00303555
0.00352393
0.00398956
0.00443204
0.00484969
0.00523945
0.00559674
0.00591536
0.00618737
0.00640311
0.00655127
0.00661922
0.00659358
0.00646115
0.00621037
0.00583327
0.00532799
0.00470157
0.00397283
0.00317442
0.00235335
0.00156892
0.000887325
0.000382318
0.000147132
-0.000459954
-0.000853144
-0.00142137
-0.00198656
-0.0025237
-0.00303555
-0.00352393
-0.00398956
-0.00443204
-0.00484969
-0.00523945
-0.00559674
-0.00591536
-0.00618737
-0.00640311
-0.00655127
-0.00661922
-0.00659358
-0.00646115
-0.00621037
-0.00583327
-0.00532799
-0.00470157
-0.00397283
-0.00317442
-0.00235335
-0.00156892
-0.000887325
-0.000382318
-0.000147132
-0.00137557
-0.00255152
-0.00425104
-0.00594169
-0.0075487
-0.00908047
-0.0105425
-0.0119371
-0.0132633
-0.0145161
-0.0156868
-0.0167617
-0.0177226
-0.018546
-0.0192031
-0.0196602
-0.0198794
-0.0198203
-0.0194427
-0.0187107
-0.0175987
-0.0160989
-0.0142299
-0.0120457
-0.00964251
-0.00716136
-0.0047823
-0.00270858
-0.00116834
-0.00044996
-0.00227831
-0.0042261
-0.00704143
-0.00984269
-0.0125063
-0.0150465
-0.0174727
-0.0197893
-0.021995
-0.0240825
-0.0260376
-0.0278387
-0.0294565
-0.0308526
-0.0319802
-0.0327836
-0.0331997
-0.0331606
-0.032597
-0.0314456
-0.0296582
-0.0272144
-0.0241364
-0.0205055
-0.0164761
-0.012282
-0.00823028
-0.00467538
-0.00202145
-0.00077972
-0.00315952
-0.00586092
-0.00976613
-0.013653
-0.0173508
-0.0208798
-0.024254
-0.0274802
-0.0305577
-0.0334776
-0.0362217
-0.0387618
-0.0410587
-0.0430612
-0.0447054
-0.0459153
-0.0466029
-0.046672
-0.046022
-0.0445572
-0.0421989
-0.0389027
-0.0346811
-0.0296283
-0.0239448
-0.0179537
-0.0120973
-0.0069051
-0.00299685
-0.00115888
-0.00401048
-0.00743985
-0.0123984
-0.0173357
-0.0220357
-0.0265255
-0.0308237
-0.0349407
-0.0388773
-0.0426242
-0.0461609
-0.0494543
-0.0524575
-0.0551087
-0.0573296
-0.0590255
-0.0600853
-0.060384
-0.0597879
-0.058163
-0.05539
-0.0513858
-0.0461327
-0.039715
-0.0323584
-0.0244633
-0.0166147
-0.00955045
-0.00416845
-0.00161809
-0.00482243
-0.00894666
-0.0149113
-0.0208531
-0.0265136
-0.0319266
-0.0371166
-0.0420979
-0.0468742
-0.0514374
-0.0557663
-0.0598254
-0.063563
-0.0669095
-0.0697756
-0.0720512
-0.0736048
-0.0742844
-0.0739217
-0.0723398
-0.0693685
-0.0648678
-0.0587635
-0.0510966
-0.0420825
-0.0321718
-0.0220908
-0.0128249
-0.0056436
-0.00220305
-0.00558662
-0.0103651
-0.0172777
-0.0241673
-0.030736
-0.0370251
-0.0430649
-0.048875
-0.0544631
-0.0598238
-0.0649375
-0.0697688
-0.0742644
-0.0783508
-0.0819321
-0.0848875
-0.0870697
-0.0883037
-0.0883883
-0.0871022
-0.0842154
-0.0795131
-0.072834
-0.0641303
-0.0535515
-0.0415454
-0.0289532
-0.0170434
-0.00758907
-0.00298734
-0.00629441
-0.0116791
-0.0194707
-0.0272404
-0.0346545
-0.0417616
-0.048599
-0.0551919
-0.0615531
-0.0676818
-0.0735621
-0.0791615
-0.0844284
-0.0892901
-0.0936491
-0.0973804
-0.100328
-0.1023
-0.103069
-0.102374
-0.0999215
-0.095409
-0.0885574
-0.0791765
-0.0672702
-0.0531885
-0.0378108
-0.0226919
-0.01028
-0.00409858
-0.00693738
-0.0128731
-0.0214642
-0.0300354
-0.038221
-0.0460773
-0.0536484
-0.0609661
-0.0680494
-0.0749033
-0.0815177
-0.0878654
-0.0939005
-0.0995551
-0.104737
-0.109323
-0.113157
-0.116043
-0.11774
-0.117954
-0.116341
-0.112507
-0.106036
-0.0965422
-0.0837849
-0.0678665
-0.0495359
-0.030544
-0.0141977
-0.00577602
-0.00750756
-0.0139322
-0.0232331
-0.0325166
-0.0413892
-0.0499144
-0.0581436
-0.0661154
-0.0738558
-0.0813765
-0.0886747
-0.0957312
-0.102508
-0.108948
-0.114967
-0.120454
-0.125264
-0.129209
-0.132049
-0.133483
-0.133135
-0.130541
-0.125154
-0.116364
-0.103588
-0.0864812
-0.065357
-0.0418586
-0.0202323
-0.00850789
-0.00799744
-0.0148427
-0.0247547
-0.0346515
-0.0441159
-0.0532186
-0.0620181
-0.0705601
-0.0788776
-0.0869897
-0.0949019
-0.102604
-0.110069
-0.117252
-0.124085
-0.130473
-0.136292
-0.141377
-0.145512
-0.148415
-0.149717
-0.148932
-0.145429
-0.138403
-0.126892
-0.109912
-0.0868918
-0.0586787
-0.0301179
-0.0133795
-0.00839972
-0.0155924
-0.0260094
-0.0364114
-0.0463625
-0.0559406
-0.065211
-0.0742263
-0.083026
-0.0916368
-0.100072
-0.108332
-0.1164
-0.124246
-0.13182
-0.139049
-0.145837
-0.152053
-0.157524
-0.162019
-0.165221
-0.166695
-0.165825
-0.161736
-0.153192
-0.138541
-0.1159
-0.0841547
-0.0473467
-0.0229823
-0.00870525
-0.0161703
-0.0269831
-0.0377739
-0.0480969
-0.0580382
-0.0676694
-0.077049
-0.0862224
-0.0952228
-0.104071
-0.112775
-0.12133
-0.129719
-0.13791
-0.145853
-0.153482
-0.160706
-0.167406
-0.173421
-0.178532
-0.182421
-0.184621
-0.184399
-0.180571
-0.171189
-0.153163
-0.122315
-0.0788559
-0.0436819
-0.0088934
-0.016564
-0.0276716
-0.0387245
-0.0492948
-0.0594779
-0.0693507
-0.0789757
-0.0884027
-0.0976695
-0.106802
-0.115816
-0.124714
-0.13349
-0.142125
-0.150591
-0.158845
-0.166833
-0.174487
-0.181717
-0.188409
-0.194404
-0.199468
-0.203216
-0.204955
-0.203307
-0.195364
-0.174964
-0.13646
-0.0898537
-0.00755487
-0.0135056
-0.0225173
-0.0314526
-0.0400084
-0.0482561
-0.0562572
-0.0640634
-0.0717161
-0.0792478
-0.0866819
-0.0940336
-0.10131
-0.108511
-0.115628
-0.122648
-0.129552
-0.136313
-0.142905
-0.149298
-0.155464
-0.161377
-0.167024
-0.172399
-0.177508
-0.182318
-0.186504
-0.188235
-0.186022
-0.153286
