# vtk DataFile Version 3.0
Malha 2D com triângulos e temperatura
ASCII
DATASET UNSTRUCTURED_GRID

POINTS 10000 double
0 0 0
1 0 0
1 1 0
0 1 0
0.010101 0 0
0.020202 0 0
0.030303 0 0
0.040404 0 0
0.0505051 0 0
0.0606061 0 0
0.0707071 0 0
0.0808081 0 0
0.0909091 0 0
0.10101 0 0
0.111111 0 0
0.121212 0 0
0.131313 0 0
0.141414 0 0
0.151515 0 0
0.161616 0 0
0.171717 0 0
0.181818 0 0
0.191919 0 0
0.20202 0 0
0.212121 0 0
0.222222 0 0
0.232323 0 0
0.242424 0 0
0.252525 0 0
0.262626 0 0
0.272727 0 0
0.282828 0 0
0.292929 0 0
0.30303 0 0
0.313131 0 0
0.323232 0 0
0.333333 0 0
0.343434 0 0
0.353535 0 0
0.363636 0 0
0.373737 0 0
0.383838 0 0
0.393939 0 0
0.40404 0 0
0.414141 0 0
0.424242 0 0
0.434343 0 0
0.444444 0 0
0.454545 0 0
0.464646 0 0
0.474747 0 0
0.484848 0 0
0.494949 0 0
0.505051 0 0
0.515152 0 0
0.525253 0 0
0.535354 0 0
0.545455 0 0
0.555556 0 0
0.565657 0 0
0.575758 0 0
0.585859 0 0
0.59596 0 0
0.606061 0 0
0.616162 0 0
0.626263 0 0
0.636364 0 0
0.646465 0 0
0.656566 0 0
0.666667 0 0
0.676768 0 0
0.686869 0 0
0.69697 0 0
0.707071 0 0
0.717172 0 0
0.727273 0 0
0.737374 0 0
0.747475 0 0
0.757576 0 0
0.767677 0 0
0.777778 0 0
0.787879 0 0
0.79798 0 0
0.808081 0 0
0.818182 0 0
0.828283 0 0
0.838384 0 0
0.848485 0 0
0.858586 0 0
0.868687 0 0
0.878788 0 0
0.888889 0 0
0.89899 0 0
0.909091 0 0
0.919192 0 0
0.929293 0 0
0.939394 0 0
0.949495 0 0
0.959596 0 0
0.969697 0 0
0.979798 0 0
0.989899 0 0
1 0.010101 0
1 0.020202 0
1 0.030303 0
1 0.040404 0
1 0.0505051 0
1 0.0606061 0
1 0.0707071 0
1 0.0808081 0
1 0.0909091 0
1 0.10101 0
1 0.111111 0
1 0.121212 0
1 0.131313 0
1 0.141414 0
1 0.151515 0
1 0.161616 0
1 0.171717 0
1 0.181818 0
1 0.191919 0
1 0.20202 0
1 0.212121 0
1 0.222222 0
1 0.232323 0
1 0.242424 0
1 0.252525 0
1 0.262626 0
1 0.272727 0
1 0.282828 0
1 0.292929 0
1 0.30303 0
1 0.313131 0
1 0.323232 0
1 0.333333 0
1 0.343434 0
1 0.353535 0
1 0.363636 0
1 0.373737 0
1 0.383838 0
1 0.393939 0
1 0.40404 0
1 0.414141 0
1 0.424242 0
1 0.434343 0
1 0.444444 0
1 0.454545 0
1 0.464646 0
1 0.474747 0
1 0.484848 0
1 0.494949 0
1 0.505051 0
1 0.515152 0
1 0.525253 0
1 0.535354 0
1 0.545455 0
1 0.555556 0
1 0.565657 0
1 0.575758 0
1 0.585859 0
1 0.59596 0
1 0.606061 0
1 0.616162 0
1 0.626263 0
1 0.636364 0
1 0.646465 0
1 0.656566 0
1 0.666667 0
1 0.676768 0
1 0.686869 0
1 0.69697 0
1 0.707071 0
1 0.717172 0
1 0.727273 0
1 0.737374 0
1 0.747475 0
1 0.757576 0
1 0.767677 0
1 0.777778 0
1 0.787879 0
1 0.79798 0
1 0.808081 0
1 0.818182 0
1 0.828283 0
1 0.838384 0
1 0.848485 0
1 0.858586 0
1 0.868687 0
1 0.878788 0
1 0.888889 0
1 0.89899 0
1 0.909091 0
1 0.919192 0
1 0.929293 0
1 0.939394 0
1 0.949495 0
1 0.959596 0
1 0.969697 0
1 0.979798 0
1 0.989899 0
0.989899 1 0
0.979798 1 0
0.969697 1 0
0.959596 1 0
0.949495 1 0
0.939394 1 0
0.929293 1 0
0.919192 1 0
0.909091 1 0
0.89899 1 0
0.888889 1 0
0.878788 1 0
0.868687 1 0
0.858586 1 0
0.848485 1 0
0.838384 1 0
0.828283 1 0
0.818182 1 0
0.808081 1 0
0.79798 1 0
0.787879 1 0
0.777778 1 0
0.767677 1 0
0.757576 1 0
0.747475 1 0
0.737374 1 0
0.727273 1 0
0.717172 1 0
0.707071 1 0
0.69697 1 0
0.686869 1 0
0.676768 1 0
0.666667 1 0
0.656566 1 0
0.646465 1 0
0.636364 1 0
0.626263 1 0
0.616162 1 0
0.606061 1 0
0.59596 1 0
0.585859 1 0
0.575758 1 0
0.565657 1 0
0.555556 1 0
0.545455 1 0
0.535354 1 0
0.525253 1 0
0.515152 1 0
0.505051 1 0
0.494949 1 0
0.484848 1 0
0.474747 1 0
0.464646 1 0
0.454545 1 0
0.444444 1 0
0.434343 1 0
0.424242 1 0
0.414141 1 0
0.40404 1 0
0.393939 1 0
0.383838 1 0
0.373737 1 0
0.363636 1 0
0.353535 1 0
0.343434 1 0
0.333333 1 0
0.323232 1 0
0.313131 1 0
0.30303 1 0
0.292929 1 0
0.282828 1 0
0.272727 1 0
0.262626 1 0
0.252525 1 0
0.242424 1 0
0.232323 1 0
0.222222 1 0
0.212121 1 0
0.20202 1 0
0.191919 1 0
0.181818 1 0
0.171717 1 0
0.161616 1 0
0.151515 1 0
0.141414 1 0
0.131313 1 0
0.121212 1 0
0.111111 1 0
0.10101 1 0
0.0909091 1 0
0.0808081 1 0
0.0707071 1 0
0.0606061 1 0
0.0505051 1 0
0.040404 1 0
0.030303 1 0
0.020202 1 0
0.010101 1 0
0 0.989899 0
0 0.979798 0
0 0.969697 0
0 0.959596 0
0 0.949495 0
0 0.939394 0
0 0.929293 0
0 0.919192 0
0 0.909091 0
0 0.89899 0
0 0.888889 0
0 0.878788 0
0 0.868687 0
0 0.858586 0
0 0.848485 0
0 0.838384 0
0 0.828283 0
0 0.818182 0
0 0.808081 0
0 0.79798 0
0 0.787879 0
0 0.777778 0
0 0.767677 0
0 0.757576 0
0 0.747475 0
0 0.737374 0
0 0.727273 0
0 0.717172 0
0 0.707071 0
0 0.69697 0
0 0.686869 0
0 0.676768 0
0 0.666667 0
0 0.656566 0
0 0.646465 0
0 0.636364 0
0 0.626263 0
0 0.616162 0
0 0.606061 0
0 0.59596 0
0 0.585859 0
0 0.575758 0
0 0.565657 0
0 0.555556 0
0 0.545455 0
0 0.535354 0
0 0.525253 0
0 0.515152 0
0 0.505051 0
0 0.494949 0
0 0.484848 0
0 0.474747 0
0 0.464646 0
0 0.454545 0
0 0.444444 0
0 0.434343 0
0 0.424242 0
0 0.414141 0
0 0.40404 0
0 0.393939 0
0 0.383838 0
0 0.373737 0
0 0.363636 0
0 0.353535 0
0 0.343434 0
0 0.333333 0
0 0.323232 0
0 0.313131 0
0 0.30303 0
0 0.292929 0
0 0.282828 0
0 0.272727 0
0 0.262626 0
0 0.252525 0
0 0.242424 0
0 0.232323 0
0 0.222222 0
0 0.212121 0
0 0.20202 0
0 0.191919 0
0 0.181818 0
0 0.171717 0
0 0.161616 0
0 0.151515 0
0 0.141414 0
0 0.131313 0
0 0.121212 0
0 0.111111 0
0 0.10101 0
0 0.0909091 0
0 0.0808081 0
0 0.0707071 0
0 0.0606061 0
0 0.0505051 0
0 0.040404 0
0 0.030303 0
0 0.020202 0
0 0.010101 0
0.010101 0.989899 0
0.010101 0.979798 0
0.010101 0.969697 0
0.010101 0.959596 0
0.010101 0.949495 0
0.010101 0.939394 0
0.010101 0.929293 0
0.010101 0.919192 0
0.010101 0.909091 0
0.010101 0.89899 0
0.010101 0.888889 0
0.010101 0.878788 0
0.010101 0.868687 0
0.010101 0.858586 0
0.010101 0.848485 0
0.010101 0.838384 0
0.010101 0.828283 0
0.010101 0.818182 0
0.010101 0.808081 0
0.010101 0.79798 0
0.010101 0.787879 0
0.010101 0.777778 0
0.010101 0.767677 0
0.010101 0.757576 0
0.010101 0.747475 0
0.010101 0.737374 0
0.010101 0.727273 0
0.010101 0.717172 0
0.010101 0.707071 0
0.010101 0.69697 0
0.010101 0.686869 0
0.010101 0.676768 0
0.010101 0.666667 0
0.010101 0.656566 0
0.010101 0.646465 0
0.010101 0.636364 0
0.010101 0.626263 0
0.010101 0.616162 0
0.010101 0.606061 0
0.010101 0.59596 0
0.010101 0.585859 0
0.010101 0.575758 0
0.010101 0.565657 0
0.010101 0.555556 0
0.010101 0.545455 0
0.010101 0.535354 0
0.010101 0.525253 0
0.010101 0.515152 0
0.010101 0.505051 0
0.010101 0.494949 0
0.010101 0.484848 0
0.010101 0.474747 0
0.010101 0.464646 0
0.010101 0.454545 0
0.010101 0.444444 0
0.010101 0.434343 0
0.010101 0.424242 0
0.010101 0.414141 0
0.010101 0.40404 0
0.010101 0.393939 0
0.010101 0.383838 0
0.010101 0.373737 0
0.010101 0.363636 0
0.010101 0.353535 0
0.010101 0.343434 0
0.010101 0.333333 0
0.010101 0.323232 0
0.010101 0.313131 0
0.010101 0.30303 0
0.010101 0.292929 0
0.010101 0.282828 0
0.010101 0.272727 0
0.010101 0.262626 0
0.010101 0.252525 0
0.010101 0.242424 0
0.010101 0.232323 0
0.010101 0.222222 0
0.010101 0.212121 0
0.010101 0.20202 0
0.010101 0.191919 0
0.010101 0.181818 0
0.010101 0.171717 0
0.010101 0.161616 0
0.010101 0.151515 0
0.010101 0.141414 0
0.010101 0.131313 0
0.010101 0.121212 0
0.010101 0.111111 0
0.010101 0.10101 0
0.010101 0.0909091 0
0.010101 0.0808081 0
0.010101 0.0707071 0
0.010101 0.0606061 0
0.010101 0.0505051 0
0.010101 0.040404 0
0.010101 0.030303 0
0.010101 0.020202 0
0.010101 0.010101 0
0.020202 0.989899 0
0.020202 0.979798 0
0.020202 0.969697 0
0.020202 0.959596 0
0.020202 0.949495 0
0.020202 0.939394 0
0.020202 0.929293 0
0.020202 0.919192 0
0.020202 0.909091 0
0.020202 0.89899 0
0.020202 0.888889 0
0.020202 0.878788 0
0.020202 0.868687 0
0.020202 0.858586 0
0.020202 0.848485 0
0.020202 0.838384 0
0.020202 0.828283 0
0.020202 0.818182 0
0.020202 0.808081 0
0.020202 0.79798 0
0.020202 0.787879 0
0.020202 0.777778 0
0.020202 0.767677 0
0.020202 0.757576 0
0.020202 0.747475 0
0.020202 0.737374 0
0.020202 0.727273 0
0.020202 0.717172 0
0.020202 0.707071 0
0.020202 0.69697 0
0.020202 0.686869 0
0.020202 0.676768 0
0.020202 0.666667 0
0.020202 0.656566 0
0.020202 0.646465 0
0.020202 0.636364 0
0.020202 0.626263 0
0.020202 0.616162 0
0.020202 0.606061 0
0.020202 0.59596 0
0.020202 0.585859 0
0.020202 0.575758 0
0.020202 0.565657 0
0.020202 0.555556 0
0.020202 0.545455 0
0.020202 0.535354 0
0.020202 0.525253 0
0.020202 0.515152 0
0.020202 0.505051 0
0.020202 0.494949 0
0.020202 0.484848 0
0.020202 0.474747 0
0.020202 0.464646 0
0.020202 0.454545 0
0.020202 0.444444 0
0.020202 0.434343 0
0.020202 0.424242 0
0.020202 0.414141 0
0.020202 0.40404 0
0.020202 0.393939 0
0.020202 0.383838 0
0.020202 0.373737 0
0.020202 0.363636 0
0.020202 0.353535 0
0.020202 0.343434 0
0.020202 0.333333 0
0.020202 0.323232 0
0.020202 0.313131 0
0.020202 0.30303 0
0.020202 0.292929 0
0.020202 0.282828 0
0.020202 0.272727 0
0.020202 0.262626 0
0.020202 0.252525 0
0.020202 0.242424 0
0.020202 0.232323 0
0.020202 0.222222 0
0.020202 0.212121 0
0.020202 0.20202 0
0.020202 0.191919 0
0.020202 0.181818 0
0.020202 0.171717 0
0.020202 0.161616 0
0.020202 0.151515 0
0.020202 0.141414 0
0.020202 0.131313 0
0.020202 0.121212 0
0.020202 0.111111 0
0.020202 0.10101 0
0.020202 0.0909091 0
0.020202 0.0808081 0
0.020202 0.0707071 0
0.020202 0.0606061 0
0.020202 0.0505051 0
0.020202 0.040404 0
0.020202 0.030303 0
0.020202 0.020202 0
0.020202 0.010101 0
0.030303 0.989899 0
0.030303 0.979798 0
0.030303 0.969697 0
0.030303 0.959596 0
0.030303 0.949495 0
0.030303 0.939394 0
0.030303 0.929293 0
0.030303 0.919192 0
0.030303 0.909091 0
0.030303 0.89899 0
0.030303 0.888889 0
0.030303 0.878788 0
0.030303 0.868687 0
0.030303 0.858586 0
0.030303 0.848485 0
0.030303 0.838384 0
0.030303 0.828283 0
0.030303 0.818182 0
0.030303 0.808081 0
0.030303 0.79798 0
0.030303 0.787879 0
0.030303 0.777778 0
0.030303 0.767677 0
0.030303 0.757576 0
0.030303 0.747475 0
0.030303 0.737374 0
0.030303 0.727273 0
0.030303 0.717172 0
0.030303 0.707071 0
0.030303 0.69697 0
0.030303 0.686869 0
0.030303 0.676768 0
0.030303 0.666667 0
0.030303 0.656566 0
0.030303 0.646465 0
0.030303 0.636364 0
0.030303 0.626263 0
0.030303 0.616162 0
0.030303 0.606061 0
0.030303 0.59596 0
0.030303 0.585859 0
0.030303 0.575758 0
0.030303 0.565657 0
[...]
CELL_DATA 9801
VECTORS velocity double
0.215633 0.131553 0.0
-0.00847219 0.188219 0.0
-0.0263973 0.141463 0.0
-0.0195314 0.0982753 0.0
-0.0124238 0.0694336 0.0
-0.00768349 0.0504188 0.0
-0.00480635 0.0376737 0.0
-0.00308075 0.0289936 0.0
-0.00202707 0.022984 0.0
-0.00136543 0.01876 0.0
-0.000937091 0.0157557 0.0
-0.000651353 0.0136035 0.0
-0.000455282 0.012059 0.0
-0.000317172 0.0109568 0.0
-0.000217506 0.0101829 0.0
-0.000143963 0.00965716 0.0
-8.85616e-05 0.00932221 0.0
-4.59062e-05 0.00913652 0.0
-1.191e-05 0.00906982 0.0
1.67016e-05 0.0091034 0.0
4.13282e-05 0.00921972 0.0
6.22332e-05 0.00940644 0.0
8.00414e-05 0.00965287 0.0
9.54215e-05 0.00994999 0.0
0.000108884 0.0102905 0.0
0.000120773 0.0106685 0.0
0.000131307 0.0110787 0.0
0.000140625 0.0115166 0.0
0.000148807 0.0119778 0.0
0.000155895 0.0124585 0.0
0.000161901 0.0129546 0.0
0.00016682 0.0134625 0.0
0.000170634 0.0139783 0.0
0.000173314 0.0144983 0.0
0.00017483 0.0150186 0.0
0.000175147 0.0155355 0.0
0.00017423 0.0160449 0.0
0.000172048 0.0165432 0.0
0.00016857 0.0170263 0.0
0.000163771 0.0174904 0.0
0.000157634 0.0179315 0.0
0.000150149 0.0183459 0.0
0.000141314 0.0187297 0.0
0.000131126 0.0190791 0.0
0.000119559 0.0193907 0.0
0.000106575 0.0196609 0.0
9.21649e-05 0.0198863 0.0
7.64549e-05 0.0200639 0.0
5.98015e-05 0.0201907 0.0
4.2744e-05 0.0202649 0.0
2.5642e-05 0.0202857 0.0
7.84809e-06 0.0202523 0.0
-1.12092e-05 0.0201613 0.0
-3.11971e-05 0.020011 0.0
-5.17605e-05 0.0198003 0.0
-7.26088e-05 0.0195287 0.0
-9.34898e-05 0.0191966 0.0
-0.000114169 0.0188049 0.0
-0.000134421 0.0183551 0.0
-0.000154023 0.0178492 0.0
-0.000172755 0.0172901 0.0
-0.000190404 0.0166808 0.0
-0.000206763 0.0160252 0.0
-0.000221635 0.0153276 0.0
-0.000234839 0.0145925 0.0
-0.000246207 0.0138252 0.0
-0.000255596 0.0130312 0.0
-0.000262882 0.0122162 0.0
-0.000267969 0.0113863 0.0
-0.000270792 0.0105478 0.0
-0.000271315 0.0097069 0.0
-0.000269537 0.00887002 0.0
-0.00026549 0.00804339 0.0
-0.000259243 0.00723315 0.0
-0.0002509 0.00644518 0.0
-0.000240598 0.00568502 0.0
-0.000228507 0.00495784 0.0
-0.000214829 0.00426831 0.0
-0.000199788 0.00362055 0.0
-0.000183631 0.00301807 0.0
-0.000166621 0.00246374 0.0
-0.000149027 0.00195972 0.0
-0.000131123 0.00150746 0.0
-0.000113176 0.0011077 0.0
-9.54391e-05 0.000760462 0.0
-7.81469e-05 0.000465121 0.0
-6.15077e-05 0.000220409 0.0
-4.56979e-05 2.44895e-05 0.0
-3.08636e-05 -0.000124985 0.0
-1.71501e-05 -0.000230796 0.0
-4.67819e-06 -0.0002962 0.0
6.44211e-06 -0.00032488 0.0
1.60536e-05 -0.000320998 0.0
2.38891e-05 -0.000289363 0.0
2.94554e-05 -0.000235769 0.0
3.18584e-05 -0.000167567 0.0
2.95579e-05 -9.47458e-05 0.0
2.03004e-05 -3.27302e-05 0.0
3.86819e-06 -3.81093e-06 0.0
0.267966 0.107851 0.0
-0.0244031 0.170886 0.0
-0.0570835 0.171674 0.0
-0.0489814 0.150348 0.0
-0.0364139 0.124839 0.0
-0.0260218 0.102097 0.0
-0.0184491 0.0835414 0.0
-0.0131209 0.0689717 0.0
-0.00939259 0.0577619 0.0
-0.00676829 0.049235 0.0
-0.00490028 0.0427986 0.0
-0.00355221 0.0379763 0.0
-0.00256466 0.0343987 0.0
-0.00182981 0.0317851 0.0
-0.00127427 0.0299233 0.0
-0.000847553 0.0286534 0.0
-0.000514459 0.0278546 0.0
-0.000249718 0.0274353 0.0
-3.35869e-05 0.0273267 0.0
0.000147214 0.027483 0.0
0.000299066 0.0278533 0.0
0.000426618 0.0284043 0.0
0.000534416 0.0291073 0.0
0.000626267 0.0299385 0.0
0.000704987 0.030878 0.0
0.000772562 0.0319091 0.0
0.000830359 0.033017 0.0
0.000879302 0.0341885 0.0
0.000919997 0.0354113 0.0
0.000952826 0.0366739 0.0
0.000978013 0.0379653 0.0
0.000995676 0.0392747 0.0
0.00100586 0.0405915 0.0
0.00100857 0.0419055 0.0
0.00100377 0.0432064 0.0
0.000991448 0.044484 0.0
0.000971571 0.0457284 0.0
0.00094413 0.0469296 0.0
0.000909142 0.0480778 0.0
0.000866653 0.0491636 0.0
0.000816749 0.0501776 0.0
0.00075956 0.0511108 0.0
0.000695256 0.0519544 0.0
0.000624027 0.0527002 0.0
0.000546086 0.0533405 0.0
0.000461709 0.0538679 0.0
0.00037138 0.0542759 0.0
0.000276005 0.0545584 0.0
0.000176966 0.0547111 0.0
7.59943e-05 0.054732 0.0
-2.77652e-05 0.0546209 0.0
-0.00013623 0.054366 0.0
-0.000248831 0.0539657 0.0
-0.000364036 0.0534179 0.0
-0.000480389 0.0527221 0.0
-0.000596588 0.0518793 0.0
-0.000711431 0.0508916 0.0
-0.000823777 0.0497626 0.0
-0.000932519 0.0484972 0.0
-0.00103658 0.0471014 0.0
-0.00113493 0.0455824 0.0
-0.00122656 0.0439486 0.0
-0.00131052 0.0422094 0.0
-0.00138593 0.0403752 0.0
-0.00145197 0.0384573 0.0
-0.00150792 0.0364678 0.0
-0.00155316 0.0344195 0.0
-0.00158718 0.0323259 0.0
-0.00160959 0.0302009 0.0
-0.00162013 0.0280587 0.0
-0.00161869 0.0259137 0.0
-0.00160531 0.0237804 0.0
-0.00158019 0.0216731 0.0
-0.00154367 0.0196058 0.0
-0.00149626 0.0175922 0.0
-0.00143862 0.015645 0.0
-0.00137157 0.0137764 0.0
-0.00129606 0.0119976 0.0
-0.00121316 0.0103185 0.0
-0.00112405 0.00874802 0.0
-0.00102999 0.00729336 0.0
-0.00093231 0.00596043 0.0
-0.000832352 0.00475352 0.0
-0.000731468 0.00367532 0.0
-0.000630974 0.00272688 0.0
-0.000532125 0.00190764 0.0
-0.000436092 0.00121549 0.0
-0.000343943 0.000646819 0.0
-0.000256639 0.000196611 0.0
-0.000175062 -0.000141562 0.0
-0.000100177 -0.000375152 0.0
-3.29272e-05 -0.000513344 0.0
2.55766e-05 -0.000566761 0.0
7.37708e-05 -0.000547782 0.0
0.000109305 -0.000471093 0.0
0.000128537 -0.0003543 0.0
0.000126043 -0.000218963 0.0
9.48297e-05 -9.41225e-05 0.0
3.25533e-05 -1.98883e-05 0.0
0.372301 0.0749311 0.0
0.0268987 0.122149 0.0
-0.0553717 0.151493 0.0
-0.0648053 0.150821 0.0
-0.0565303 0.137538 0.0
-0.0452793 0.121261 0.0
-0.0350511 0.105587 0.0
-0.0267143 0.0918365 0.0
-0.020202 0.080361 0.0
-0.0152036 0.0710728 0.0
-0.0113887 0.0637168 0.0
-0.00847432 0.0579993 0.0
-0.00623653 0.053643 0.0
-0.00450487 0.0504061 0.0
-0.00315194 0.0480871 0.0
-0.00208323 0.0465214 0.0
-0.00122862 0.0455767 0.0
-0.000535262 0.0451467 0.0
3.8247e-05 0.0451514 0.0
0.000517826 0.0455217 0.0
0.000918069 0.0461929 0.0
0.00125329 0.0471176 0.0
0.00153561 0.0482548 0.0
0.00177445 0.0495704 0.0
0.00197675 0.0510353 0.0
0.00214753 0.0526241 0.0
0.00229035 0.0543144 0.0
0.00240769 0.0560856 0.0
0.00250127 0.0579186 0.0
0.00257227 0.0597955 0.0
0.00262146 0.0616992 0.0
0.00264938 0.0636132 0.0
0.00265637 0.0655214 0.0
0.00264269 0.0674083 0.0
0.00260852 0.0692587 0.0
0.00255406 0.0710575 0.0
0.00247951 0.0727905 0.0
0.00238512 0.0744434 0.0
0.00227122 0.0760027 0.0
0.00213822 0.0774551 0.0
0.00198661 0.078788 0.0
0.00181702 0.0799895 0.0
0.00163015 0.0810483 0.0
0.00142679 0.0819539 0.0
0.0012079 0.0826967 0.0
0.000974738 0.0832679 0.0
0.000729094 0.0836597 0.0
0.000473376 0.0838658 0.0
0.000210501 0.083882 0.0
-5.95484e-05 0.08371 0.0
-0.000339537 0.0833311 0.0
-0.00062908 0.0827453 0.0
-0.000924841 0.0819508 0.0
-0.00122358 0.0809474 0.0
-0.00152227 0.0797369 0.0
-0.00181803 0.0783224 0.0
-0.00210814 0.0767088 0.0
-0.00238997 0.0749026 0.0
-0.00266098 0.0729117 0.0
-0.00291871 0.0707454 0.0
-0.00316081 0.0684146 0.0
-0.00338503 0.0659313 0.0
-0.00358925 0.063309 0.0
-0.00377151 0.060562 0.0
-0.00393003 0.0577061 0.0
-0.00406323 0.0547576 0.0
-0.00416976 0.0517339 0.0
-0.0042485 0.0486529 0.0
-0.00429863 0.0455333 0.0
-0.00431961 0.0423939 0.0
-0.0043112 0.039254 0.0
-0.00427351 0.0361328 0.0
-0.00420696 0.0330492 0.0
-0.00411235 0.0300222 0.0
-0.00399082 0.0270699 0.0
-0.00384384 0.0242099 0.0
-0.00367326 0.0214587 0.0
-0.00348124 0.0188318 0.0
-0.00327022 0.0163432 0.0
-0.00304294 0.0140056 0.0
-0.00280235 0.0118296 0.0
-0.00255158 0.00982437 0.0
-0.00229387 0.00799673 0.0
-0.00203253 0.00635152 0.0
-0.00177085 0.00489135 0.0
-0.00151202 0.00361662 0.0
-0.00125914 0.00252549 0.0
-0.00101512 0.00161392 0.0
-0.000782716 0.000875713 0.0
-0.000564534 0.000302521 0.0
-0.000363195 -0.000116134 0.0
-0.000181699 -0.000392621 0.0
-2.33214e-05 -0.000542054 0.0
0.000107908 -0.000582182 0.0
0.000206538 -0.000533778 0.0
0.000265032 -0.000421084 0.0
0.000273245 -0.000272429 0.0
0.000219104 -0.000124327 0.0
9.34889e-05 -2.85955e-05 0.0
0.457182 0.0541698 0.0
0.0804179 0.0955094 0.0
-0.0385372 0.129596 0.0
-0.0672858 0.138506 0.0
-0.0672473 0.134316 0.0
-0.0585346 0.124945 0.0
-0.048125 0.114073 0.0
-0.0384356 0.103481 0.0
-0.0301752 0.0939856 0.0
-0.0234046 0.0858792 0.0
-0.0179575 0.0791941 0.0
-0.0136093 0.0738412 0.0
-0.0101439 0.0696825 0.0
-0.00737511 0.0665683 0.0
-0.00515137 0.0643554 0.0
-0.00335239 0.0629147 0.0
-0.00188387 0.0621336 0.0
-0.000671793 0.0619156 0.0
0.000340406 0.0621881 0.0
0.00118807 0.062864 0.0
0.00189603 0.0638821 0.0
0.00248913 0.0651883 0.0
0.00298772 0.0667363 0.0
0.00340731 0.068486 0.0
0.00375942 0.0704026 0.0
0.00405249 0.0724551 0.0
0.00429268 0.0746152 0.0
0.00448442 0.0768571 0.0
0.00463088 0.0791564 0.0
0.00473437 0.0814903 0.0
0.00479654 0.083837 0.0
0.00481863 0.0861758 0.0
0.00480159 0.0884866 0.0
0.00474622 0.0907501 0.0
0.00465323 0.0929475 0.0
0.00452333 0.0950611 0.0
0.00435727 0.0970734 0.0
0.00415589 0.098968 0.0
0.00392013 0.100729 0.0
0.00365111 0.102342 0.0
0.00335008 0.103791 0.0
0.00301847 0.105066 0.0
0.00265787 0.106152 0.0
0.00227008 0.107039 0.0
0.00185724 0.107718 0.0
0.00142207 0.108178 0.0
0.000967925 0.108413 0.0
0.000498442 0.108418 0.0
1.57322e-05 0.108191 0.0
-0.000482559 0.107718 0.0
-0.000996631 0.106992 0.0
-0.00152152 0.106017 0.0
-0.00205213 0.104791 0.0
-0.00258359 0.103319 0.0
-0.00311124 0.101603 0.0
-0.00363056 0.0996501 0.0
-0.0041372 0.0974672 0.0
-0.00462694 0.0950633 0.0
-0.0050957 0.0924488 0.0
-0.00553957 0.0896355 0.0
-0.00595478 0.0866366 0.0
-0.00633776 0.0834667 0.0
-0.00668519 0.0801416 0.0
-0.00699396 0.0766782 0.0
-0.00726128 0.0730943 0.0
-0.00748467 0.0694089 0.0
-0.007662 0.0656417 0.0
-0.00779153 0.0618129 0.0
-0.00787194 0.0579437 0.0
-0.00790237 0.0540553 0.0
-0.00788244 0.0501693 0.0
-0.00781227 0.0463074 0.0
-0.00769253 0.0424913 0.0
-0.0075244 0.0387422 0.0
-0.00730968 0.0350811 0.0
-0.00705068 0.031528 0.0
-0.00675031 0.0281024 0.0
-0.006412 0.0248223 0.0
-0.00603972 0.0217045 0.0
-0.00563791 0.0187644 0.0
-0.00521143 0.0160154 0.0
-0.00476549 0.0134689 0.0
-0.00430557 0.0111343 0.0
-0.00383733 0.00901837 0.0
-0.00336648 0.00712569 0.0
-0.00289874 0.00545804 0.0
-0.0024397 0.0040146 0.0
-0.00199477 0.00279182 0.0
-0.00156921 0.00178341 0.0
-0.00116812 0.000980317 0.0
-0.000796643 0.000370689 0.0
-0.000460237 -6.01511e-05 0.0
-0.000165229 -0.00032969 0.0
8.09986e-05 -0.000458912 0.0
0.000269392 -0.000472381 0.0
0.000388307 -0.000398539 0.0
0.000422762 -0.00027001 0.0
0.000354806 -0.00012788 0.0
0.000164725 -3.05685e-05 0.0
0.518595 0.0403865 0.0
0.126433 0.0772739 0.0
-0.0171577 0.110928 0.0
-0.0623431 0.124383 0.0
-0.0708755 0.12609 0.0
-0.0659789 0.122174 0.0
-0.0567799 0.115811 0.0
-0.0469459 0.108745 0.0
-0.037885 0.101916 0.0
-0.0300412 0.0957859 0.0
-0.0234526 0.0905533 0.0
-0.018 0.0862717 0.0
-0.0135164 0.0829179 0.0
-0.00983463 0.0804294 0.0
-0.00680559 0.0787277 0.0
-0.004303 0.0777292 0.0
-0.00222272 0.0773525 0.0
-0.00047948 0.0775222 0.0
0.000987425 0.0781797 0.0
0.00221736 0.0792308 0.0
0.003248 0.0806256 0.0
0.00411295 0.0823102 0.0
0.00483914 0.084238 0.0
0.0054472 0.0863676 0.0
0.00595272 0.0886617 0.0
0.00636736 0.0910858 0.0
0.00669981 0.0936085 0.0
0.00695654 0.0962004 0.0
0.00714238 0.0988337 0.0
0.00726096 0.101482 0.0
0.0073151 0.104122 0.0
0.00730703 0.106728 0.0
0.00723862 0.109279 0.0
0.00711153 0.111753 0.0
0.00692729 0.11413 0.0
0.00668748 0.116389 0.0
0.00639371 0.118514 0.0
0.00604771 0.120484 0.0
0.00565138 0.122286 0.0
0.00520684 0.123902 0.0
0.00471638 0.12532 0.0
0.00418251 0.126525 0.0
0.00360798 0.127506 0.0
0.00299588 0.128253 0.0
0.00234979 0.128755 0.0
0.00167395 0.129005 0.0
0.000972914 0.128996 0.0
0.000250921 0.128726 0.0
-0.000493204 0.128188 0.0
-0.0012595 0.127366 0.0
-0.00204194 0.126267 0.0
-0.00283332 0.124892 0.0
-0.00362718 0.123244 0.0
-0.00441721 0.121328 0.0
-0.00519724 0.119152 0.0
-0.00596125 0.116722 0.0
-0.00670336 0.114047 0.0
-0.00741789 0.111139 0.0
-0.00809933 0.10801 0.0
-0.00874237 0.104672 0.0
-0.00934195 0.10114 0.0
-0.00989329 0.0974311 0.0
-0.0103919 0.0935609 0.0
-0.0108336 0.0895479 0.0
-0.0112147 0.085411 0.0
-0.0115317 0.08117 0.0
-0.0117819 0.0768457 0.0
-0.0119629 0.0724593 0.0
-0.0120729 0.0680328 0.0
-0.0121106 0.0635884 0.0
-0.0120756 0.0591487 0.0
-0.0119677 0.0547365 0.0
-0.011788 0.0503746 0.0
-0.0115379 0.0460854 0.0
-0.0112198 0.0418912 0.0
-0.0108366 0.0378136 0.0
-0.0103923 0.0338734 0.0
-0.00989148 0.0300905 0.0
-0.00933955 0.0264834 0.0
-0.00874261 0.0230694 0.0
-0.00810739 0.0198638 0.0
-0.00744124 0.0168803 0.0
-0.00675194 0.01413 0.0
-0.00604766 0.0116219 0.0
-0.00533678 0.0093623 0.0
-0.0046278 0.00735475 0.0
-0.00392919 0.00559979 0.0
-0.00324933 0.00409497 0.0
-0.00259648 0.00283464 0.0
-0.0019788 0.00180995 0.0
-0.00140456 0.00100874 0.0
-0.000882416 0.000415463 0.0
-0.000421921 1.11301e-05 0.0
-3.41184e-05 -0.000226845 0.0
0.000267635 -0.000324928 0.0
0.000467452 -0.000313879 0.0
0.000545508 -0.000229104 0.0
0.000477531 -0.000113993 0.0
0.000232446 -2.85215e-05 0.0
0.565715 0.0305035 0.0
0.166971 0.0631737 0.0
0.00608331 0.0950944 0.0
-0.0532366 0.111225 0.0
-0.0697561 0.116827 0.0
-0.0689802 0.11701 0.0
-0.0616277 0.114398 0.0
-0.0523473 0.110555 0.0
-0.0431277 0.106398 0.0
-0.0347515 0.102437 0.0
-0.0274532 0.0989451 0.0
-0.0212266 0.0960572 0.0
-0.0159695 0.0938249 0.0
-0.0115505 0.0922508 0.0
-0.0078384 0.0913091 0.0
-0.00471494 0.0909577 0.0
-0.00207765 0.0911457 0.0
0.000158577 0.0918275 0.0
0.00205022 0.092932 0.0
0.00364091 0.0943974 0.0
0.00497914 0.0961779 0.0
0.00610428 0.0982252 0.0
0.00704743 0.100496 0.0
0.00783278 0.10295 0.0
0.00847899 0.10555 0.0
0.00900037 0.108261 0.0
0.00940789 0.11105 0.0
0.00970995 0.113885 0.0
0.00991308 0.116738 0.0
0.0100224 0.119581 0.0
0.0100421 0.122388 0.0
0.00997561 0.125133 0.0
0.00982601 0.127794 0.0
0.00959609 0.130348 0.0
0.00928853 0.132775 0.0
0.00890602 0.135053 0.0
0.0084513 0.137165 0.0
0.0079273 0.139093 0.0
0.00733712 0.140822 0.0
0.00668406 0.142336 0.0
0.00597167 0.143622 0.0
0.00520374 0.144668 0.0
0.00438433 0.145464 0.0
0.00351797 0.145998 0.0
0.00260971 0.146264 0.0
0.00166507 0.146254 0.0
0.000689577 0.145962 0.0
-0.000314855 0.145392 0.0
-0.00134774 0.144517 0.0
-0.00240343 0.14335 0.0
-0.00347212 0.141891 0.0
-0.00454569 0.140146 0.0
-0.00561643 0.138118 0.0
-0.00667674 0.135815 0.0
-0.00771912 0.133245 0.0
-0.00873621 0.130416 0.0
-0.00972079 0.127338 0.0
-0.0106659 0.124024 0.0
-0.0115646 0.120485 0.0
-0.0124106 0.116737 0.0
-0.0131974 0.112793 0.0
-0.0139193 0.108671 0.0
-0.0145706 0.104387 0.0
-0.0151463 0.0999607 0.0
-0.0156417 0.0954099 0.0
-0.0160526 0.090755 0.0
-0.0163754 0.086017 0.0
-0.0166073 0.0812171 0.0
-0.0167457 0.0763774 0.0
-0.0167893 0.0715204 0.0
-0.0167371 0.0666689 0.0
-0.0165891 0.0618459 0.0
-0.0163463 0.0570744 0.0
-0.0160103 0.0523776 0.0
-0.0155838 0.0477782 0.0
-0.0150706 0.0432986 0.0
-0.0144753 0.0389603 0.0
-0.0138036 0.0347845 0.0
-0.0130622 0.0307908 0.0
-0.0122586 0.0269977 0.0
-0.0114014 0.0234223 0.0
-0.0104999 0.0200798 0.0
-0.00956422 0.016983 0.0
-0.00860503 0.0141428 0.0
-0.00763346 0.0115673 0.0
-0.00666092 0.00926175 0.0
-0.00569901 0.00722828 0.0
-0.00475937 0.00546584 0.0
-0.00385361 0.00396995 0.0
-0.00299337 0.00273254 0.0
-0.00219048 0.00174188 0.0
-0.00145725 0.000982475 0.0
-0.000806985 0.000434972 0.0
-0.000254589 7.60822e-05 0.0
0.000182591 -0.00012156 0.0
0.000483566 -0.000189347 0.0
0.000623753 -0.000164177 0.0
0.000572771 -8.99317e-05 0.0
0.000289417 -2.43845e-05 0.0
0.603565 0.0233353 0.0
0.203214 0.0524624 0.0
0.029133 0.0825898 0.0
-0.0416074 0.0998442 0.0
-0.065281 0.108059 0.0
-0.0685565 0.111281 0.0
-0.0633083 0.111656 0.0
-0.0549682 0.110557 0.0
-0.0460041 0.10882 0.0
-0.0374857 0.106941 0.0
-0.0298202 0.105213 0.0
-0.0231072 0.103808 0.0
-0.0173101 0.102818 0.0
-0.0123388 0.102289 0.0
-0.00808802 0.102231 0.0
-0.00445515 0.102633 0.0
-0.00134705 0.10347 0.0
0.00130964 0.104722 0.0
0.00356374 0.106305 0.0
0.00546958 0.108197 0.0
0.007079 0.110357 0.0
0.00843352 0.112743 0.0
0.00956608 0.115317 0.0
0.0105029 0.118043 0.0
0.0112645 0.120885 0.0
0.0118673 0.123809 0.0
0.0123241 0.126783 0.0
0.0126449 0.129774 0.0
0.012838 0.132755 0.0
0.01291 0.135697 0.0
0.0128666 0.138575 0.0
0.0127127 0.141363 0.0
0.0124526 0.144038 0.0
0.0120905 0.146578 0.0
0.0116305 0.148964 0.0
0.0110765 0.151174 0.0
0.0104327 0.153193 0.0
0.0097033 0.155004 0.0
0.00889279 0.156591 0.0
0.00800581 0.157941 0.0
0.00704725 0.159043 0.0
0.00602225 0.159885 0.0
0.00493628 0.160458 0.0
0.00379531 0.160753 0.0
0.00260574 0.160763 0.0
0.00137386 0.160483 0.0
0.000105124 0.159913 0.0
-0.00119906 0.15904 0.0
-0.00253303 0.15786 0.0
-0.00388554 0.156383 0.0
-0.00524663 0.154611 0.0
-0.00660722 0.15255 0.0
-0.00795848 0.150206 0.0
-0.00929163 0.147586 0.0
-0.010598 0.144698 0.0
-0.011869 0.141552 0.0
-0.0130964 0.138159 0.0
-0.0142718 0.13453 0.0
-0.0153874 0.130679 0.0
-0.0164355 0.126618 0.0
-0.0174088 0.122365 0.0
-0.0183004 0.117933 0.0
-0.0191037 0.113341 0.0
-0.0198127 0.108606 0.0
-0.0204219 0.103747 0.0
-0.0209262 0.0987848 0.0
-0.0213215 0.0937387 0.0
-0.0216042 0.0886302 0.0
-0.0217713 0.083481 0.0
-0.0218209 0.0783133 0.0
-0.0217518 0.07315 0.0
-0.0215638 0.0680138 0.0
-0.0212578 0.0629278 0.0
-0.0208356 0.0579153 0.0
-0.0203002 0.0529992 0.0
-0.0196557 0.0482023 0.0
-0.0189074 0.0435467 0.0
-0.0180619 0.0390541 0.0
-0.0171269 0.0347452 0.0
-0.0161115 0.0306394 0.0
-0.0150256 0.0267551 0.0
-0.0138806 0.0231086 0.0
-0.0126888 0.0197147 0.0
-0.0114631 0.0165856 0.0
-0.0102175 0.0137311 0.0
-0.0089664 0.0111582 0.0
-0.00772457 0.00887078 0.0
-0.00650709 0.00686936 0.0
-0.00532921 0.00515084 0.0
-0.00420631 0.00370835 0.0
-0.00315411 0.0025311 0.0
-0.00218888 0.00160424 0.0
-0.00132796 0.000908823 0.0
-0.000590406 0.000421683 0.0
2.14886e-06 0.000115453 0.0
0.000424305 -4.14556e-05 0.0
0.000646135 -8.58098e-05 0.0
0.00063178 -6.06772e-05 0.0
0.000331907 -1.93417e-05 0.0
0.634618 0.0181176 0.0
0.235921 0.0443137 0.0
0.0516607 0.0726921 0.0
-0.0284369 0.090324 0.0
-0.0584399 0.10031 0.0
-0.0655211 0.105764 0.0
-0.0624217 0.108479 0.0
-0.0552101 0.109646 0.0
-0.0467522 0.110003 0.0
-0.0383581 0.110004 0.0
-0.0305816 0.109932 0.0
-0.0236146 0.109967 0.0
-0.0174807 0.110222 0.0
-0.0121303 0.110762 0.0
-0.00748633 0.111622 0.0
-0.00346553 0.112811 0.0
9.70842e-06 0.114331 0.0
0.00299409 0.116148 0.0
0.00553563 0.118219 0.0
0.00769649 0.120531 0.0
0.00952682 0.123051 0.0
0.0110671 0.125748 0.0
0.01235 0.128588 0.0
0.0134025 0.131541 0.0
0.0142461 0.134572 0.0
0.0148983 0.13765 0.0
0.0153733 0.140745 0.0
0.0156827 0.143827 0.0
0.0158362 0.146868 0.0
0.015842 0.149842 0.0
0.0157073 0.152723 0.0
0.0154383 0.155488 0.0
0.015041 0.158115 0.0
0.014521 0.160583 0.0
0.0138839 0.162873 0.0
0.013135 0.164967 0.0
0.01228 0.166849 0.0
0.0113244 0.168505 0.0
0.0102743 0.16992 0.0
0.00913549 0.171084 0.0
0.00791439 0.171985 0.0
0.00661745 0.172614 0.0
0.00525153 0.172963 0.0
0.0038239 0.173025 0.0
0.00234208 0.172794 0.0
0.000813428 0.172267 0.0
-0.000758667 0.171445 0.0
-0.00236781 0.17031 0.0
-0.0040032 0.168875 0.0
-0.00565247 0.167144 0.0
-0.00730523 0.16512 0.0
-0.00895153 0.162809 0.0
-0.0105815 0.160217 0.0
-0.0121854 0.157352 0.0
-0.0137534 0.154223 0.0
-0.015276 0.150838 0.0
-0.0167436 0.147208 0.0
-0.0181471 0.143346 0.0
-0.0194774 0.139262 0.0
-0.0207259 0.134971 0.0
-0.0218842 0.130488 0.0
-0.0229444 0.125827 0.0
-0.0238991 0.121006 0.0
-0.0247412 0.116043 0.0
-0.0254644 0.110954 0.0
-0.026063 0.10576 0.0
-0.0265319 0.100481 0.0
-0.0268668 0.0951375 0.0
-0.0270644 0.0897505 0.0
-0.0271221 0.084342 0.0
-0.0270385 0.0789346 0.0
-0.0268131 0.0735509 0.0
-0.0264465 0.0682139 0.0
-0.0259406 0.0629467 0.0
-0.0252985 0.0577725 0.0
-0.0245246 0.0527142 0.0
-0.0236249 0.0477944 0.0
-0.0226064 0.0430352 0.0
-0.0214779 0.038458 0.0
-0.0202495 0.0340832 0.0
-0.0189328 0.02993 0.0
-0.0175408 0.0260161 0.0
-0.0160876 0.0223576 0.0
-0.0145888 0.0189683 0.0
-0.0130608 0.0158595 0.0
-0.0115211 0.0130399 0.0
-0.00998761 0.0105152 0.0
-0.008479 0.00828747 0.0
-0.00701426 0.00635521 0.0
-0.00561272 0.00471302 0.0
-0.00429421 0.0033514 0.0
-0.00307918 0.00225657 0.0