# vtk DataFile Version 3.0
Malha 2D com triângulos e temperatura
ASCII
DATASET UNSTRUCTURED_GRID

POINTS 556 double
0 0 0
1 0 0
1 1 0
0 1 0
0.047619 0 0
0.0952381 0 0
0.142857 0 0
0.190476 0 0
0.238095 0 0
0.285714 0 0
0.333333 0 0
0.380952 0 0
0.428571 0 0
0.47619 0 0
0.52381 0 0
0.571429 0 0
0.619048 0 0
0.666667 0 0
0.714286 0 0
0.761905 0 0
0.809524 0 0
0.857143 0 0
0.904762 0 0
0.952381 0 0
1 0.047619 0
1 0.0952381 0
1 0.142857 0
1 0.190476 0
1 0.238095 0
1 0.285714 0
1 0.333333 0
1 0.380952 0
1 0.428571 0
1 0.47619 0
1 0.52381 0
1 0.571429 0
1 0.619048 0
1 0.666667 0
1 0.714286 0
1 0.761905 0
1 0.809524 0
1 0.857143 0
1 0.904762 0
1 0.952381 0
0.952381 1 0
0.904762 1 0
0.857143 1 0
0.809524 1 0
0.761905 1 0
0.714286 1 0
0.666667 1 0
0.619048 1 0
0.571429 1 0
0.52381 1 0
0.47619 1 0
0.428571 1 0
0.380952 1 0
0.333333 1 0
0.285714 1 0
0.238095 1 0
0.190476 1 0
0.142857 1 0
0.0952381 1 0
0.047619 1 0
0 0.952381 0
0 0.904762 0
0 0.857143 0
0 0.809524 0
0 0.761905 0
0 0.714286 0
0 0.666667 0
0 0.619048 0
0 0.571429 0
0 0.52381 0
0 0.47619 0
0 0.428571 0
0 0.380952 0
0 0.333333 0
0 0.285714 0
0 0.238095 0
0 0.190476 0
0 0.142857 0
0 0.0952381 0
0 0.047619 0
0.502877 0.0453975 0
0.502795 0.954523 0
0.0424911 0.499879 0
0.958761 0.5 0
0.0422174 0.690476 0
0.690476 0.958761 0
0.311451 0.0438227 0
0.958761 0.309524 0
0.958761 0.690476 0
0.310663 0.957443 0
0.690476 0.0412393 0
0.0427511 0.30836 0
0.833793 0.95422 0
0.170871 0.0453815 0
0.958761 0.166667 0
0.0412393 0.833333 0
0.167489 0.959442 0
0.044661 0.165388 0
0.83415 0.0426838 0
0.958761 0.833333 0
0.0453121 0.4069 0
0.404762 0.958761 0
0.404762 0.0402432 0
0.958761 0.404762 0
0.958761 0.595238 0
0.591411 0.0454062 0
0.591411 0.954594 0
0.0463656 0.595238 0
0.930144 0.95915 0
0.0714286 0.0412393 0
0.0386783 0.928943 0
0.959824 0.0732702 0
0.958761 0.738095 0
0.917521 0.714286 0
0.917521 0.666667 0
0.876282 0.690476 0
0.876282 0.642857 0
0.835043 0.666667 0
0.835043 0.619048 0
0.793803 0.642857 0
0.793803 0.595238 0
0.752564 0.619048 0
0.752564 0.571429 0
0.711325 0.595238 0
0.711325 0.547619 0
0.670086 0.571429 0
0.670086 0.52381 0
0.628846 0.547619 0
0.628846 0.5 0
0.587607 0.52381 0
0.587607 0.47619 0
0.546368 0.5 0
0.546368 0.452381 0
0.505128 0.47619 0
0.505128 0.52381 0
0.628846 0.452381 0
0.463889 0.5 0
0.463889 0.452381 0
0.463889 0.547619 0
0.42265 0.52381 0
0.42265 0.571429 0
0.628846 0.595238 0
0.38141 0.547619 0
0.38141 0.595238 0
0.42265 0.619048 0
0.38141 0.642857 0
0.42265 0.666667 0
0.752564 0.666667 0
0.340171 0.619048 0
0.340171 0.666667 0
0.298932 0.642857 0
0.298932 0.690476 0
0.752564 0.52381 0
0.257693 0.666667 0
0.257693 0.619048 0
0.257693 0.714286 0
0.298932 0.738095 0
0.257693 0.761905 0
0.38141 0.5 0
0.835043 0.714286 0
0.216453 0.738095 0
0.216453 0.642857 0
0.216453 0.595238 0
0.298932 0.785714 0
0.216453 0.785714 0
0.463889 0.642857 0
0.463889 0.690476 0
0.175214 0.761905 0
0.175591 0.80887 0
0.216532 0.832206 0
0.835043 0.571429 0
0.340171 0.761905 0
0.340171 0.809524 0
0.38141 0.785714 0
0.505128 0.666667 0
0.505128 0.714286 0
0.257693 0.571429 0
0.216453 0.547619 0
0.546368 0.690476 0
0.546368 0.738095 0
0.587607 0.714286 0
0.587607 0.761905 0
0.546368 0.785714 0
0.587607 0.809524 0
0.628846 0.785714 0
0.257693 0.52381 0
0.216152 0.5 0
0.257642 0.47619 0
0.216094 0.452381 0
0.257624 0.428571 0
0.216873 0.404762 0
0.257751 0.380952 0
0.217024 0.357143 0
0.257797 0.333333 0
0.216566 0.309524 0
0.257729 0.285714 0
0.298955 0.309524 0
0.298942 0.261905 0
0.340177 0.285714 0
0.216478 0.261905 0
0.340174 0.238095 0
0.381412 0.261905 0
0.298934 0.214286 0
0.381411 0.214286 0
0.42265 0.238095 0
0.340176 0.333333 0
0.42265 0.285714 0
0.463889 0.261905 0
0.463889 0.214286 0
0.505128 0.238095 0
0.505128 0.285714 0
0.546368 0.261905 0
0.546368 0.214286 0
0.587607 0.238095 0
0.587607 0.285714 0
0.628846 0.261905 0
0.628846 0.214286 0
0.670086 0.238095 0
0.670086 0.285714 0
0.711325 0.261905 0
0.711325 0.309524 0
0.752564 0.285714 0
0.752564 0.238095 0
0.752564 0.333333 0
0.793803 0.261905 0
0.793803 0.214286 0
0.752564 0.190476 0
0.835043 0.238095 0
0.835043 0.285714 0
0.835043 0.190476 0
0.628846 0.833333 0
0.670086 0.809524 0
0.175214 0.619048 0
0.173888 0.522411 0
0.173754 0.426172 0
0.177283 0.333403 0
0.546368 0.833333 0
0.38141 0.833333 0
0.505128 0.809524 0
0.670086 0.761905 0
0.711325 0.785714 0
0.711325 0.833333 0
0.752564 0.809524 0
0.752564 0.857143 0
0.793803 0.833333 0
0.670086 0.333333 0
0.133029 0.787053 0
0.135598 0.835435 0
0.133817 0.738318 0
0.340171 0.857143 0
0.505128 0.857143 0
0.876282 0.214286 0
0.876282 0.166667 0
0.835043 0.142857 0
0.876282 0.119048 0
0.463889 0.738095 0
0.298912 0.452381 0
0.670086 0.190476 0
0.628846 0.166667 0
0.670086 0.142857 0
0.505128 0.571429 0
0.546368 0.642857 0
0.917521 0.761905 0
0.752564 0.761905 0
0.0915425 0.763612 0
0.546368 0.880952 0
0.793803 0.880952 0
0.835043 0.857143 0
0.835043 0.809524 0
0.628197 0.120173 0
0.587499 0.143045 0
0.753058 0.903907 0
0.463889 0.833333 0
0.464586 0.879745 0
0.38141 0.738095 0
0.298932 0.547619 0
0.175214 0.666667 0
0.132435 0.642857 0
0.133634 0.595093 0
0.876282 0.833333 0
0.875485 0.879571 0
0.381334 0.880107 0
0.336416 0.911469 0
0.297258 0.879038 0
0.0927353 0.714286 0
0.668882 0.0884705 0
0.711325 0.119048 0
0.0897004 0.61903 0
0.0914355 0.57128 0
0.587465 0.0962133 0
0.546326 0.119241 0
0.546804 0.0722089 0
0.505611 0.0961453 0
0.505202 0.143041 0
0.464844 0.118624 0
0.834894 0.0944156 0
0.793779 0.118911 0
0.876282 0.0714286 0
0.793803 0.0714286 0
0.792809 0.927231 0
0.0463319 0.73838 0
0.0468189 0.547561 0
0.0878023 0.522062 0
0.082843 0.475484 0
0.128863 0.498019 0
0.121762 0.445221 0
0.0862476 0.666665 0
0.0463555 0.786985 0
0.0909216 0.811911 0
0.0916507 0.86627 0
0.141146 0.879699 0
0.107527 0.916127 0
0.0405556 0.88346 0
0.747203 0.953793 0
0.0431872 0.642856 0
0.132282 0.546725 0
0.17341 0.47619 0
0.135191 0.397246 0
0.0916056 0.405452 0
0.102704 0.363499 0
0.0408778 0.45465 0
0.917521 0.190476 0
0.917521 0.238095 0
0.917699 0.095545 0
0.922434 0.0438574 0
0.958761 0.214286 0
0.753054 0.09607 0
0.747304 0.0460679 0
0.422753 0.856801 0
0.424977 0.911285 0
0.340172 0.190476 0
0.298932 0.166667 0
0.340171 0.142857 0
0.257693 0.190476 0
0.257693 0.142857 0
0.216453 0.166667 0
0.216453 0.119048 0
0.175214 0.142857 0
0.175214 0.190476 0
0.132568 0.16638 0
0.13374 0.214238 0
0.132905 0.119335 0
0.256979 0.0964733 0
0.215249 0.0725897 0
0.0912967 0.190193 0
0.0908814 0.237963 0
0.133627 0.261875 0
0.0927353 0.285714 0
0.25949 0.046215 0
0.0467232 0.214029 0
0.0902435 0.140623 0
0.0903639 0.0859824 0
0.0431297 0.116919 0
0.0455152 0.261646 0
0.381411 0.166667 0
0.38141 0.119048 0
0.337816 0.0887652 0
0.42265 0.190476 0
0.422667 0.809467 0
0.917521 0.619048 0
0.262095 0.95935 0
0.752642 0.142973 0
0.29892 0.5 0
0.670086 0.857143 0
0.628197 0.879827 0
0.668882 0.91153 0
0.711325 0.642857 0
0.711325 0.690476 0
0.670086 0.666667 0
0.257706 0.809336 0
0.546368 0.309524 0
0.505128 0.333333 0
0.587607 0.333333 0
0.463889 0.309524 0
0.463889 0.357143 0
0.505128 0.380952 0
0.42265 0.333333 0
0.42265 0.380952 0
0.643368 0.0419369 0
0.958761 0.642857 0
0.917521 0.571429 0
0.793803 0.785714 0
0.505553 0.90371 0
0.546892 0.927797 0
0.587607 0.904762 0
0.958967 0.119406 0
0.958761 0.452381 0
0.917521 0.428571 0
0.917521 0.380952 0
0.876282 0.404762 0
0.876282 0.452381 0
0.835043 0.428571 0
0.835043 0.47619 0
0.793803 0.452381 0
0.835043 0.380952 0
0.876282 0.5 0
0.793803 0.5 0
0.752564 0.47619 0
0.752564 0.428571 0
0.711325 0.452381 0
0.711325 0.404762 0
0.670086 0.428571 0
0.711325 0.5 0
0.643368 0.958063 0
0.357143 0.958761 0
0.175188 0.714323 0
0.670086 0.47619 0
0.628846 0.404762 0
0.587607 0.428571 0
0.88581 0.956403 0
0.0397655 0.355888 0
0.546368 0.547619 0
0.793803 0.547619 0
0.835043 0.52381 0
0.711338 0.166686 0
0.917521 0.47619 0
0.118086 0.0417648 0
0.357143 0.0412393 0
0.451602 0.0410397 0
0.426006 0.0864667 0
0.958985 0.880563 0
0.122444 0.959548 0
0.505128 0.761905 0
0.451319 0.957967 0
0.214454 0.958973 0
0.238608 0.921625 0
0.193125 0.921229 0
0.463889 0.595238 0
0.711325 0.880952 0
0.38141 0.690476 0
0.793812 0.166663 0
0.587499 0.856955 0
0.546368 0.357143 0
0.958761 0.547619 0
0.958761 0.357143 0
0.917521 0.333333 0
0.876282 0.357143 0
0.876282 0.309524 0
0.175524 0.285721 0
0.381411 0.357143 0
0.381411 0.404762 0
0.340172 0.380952 0
0.793803 0.690476 0
0.298964 0.357143 0
0.876282 0.738095 0
0.42265 0.428571 0
0.340171 0.714286 0
0.42265 0.714286 0
0.793803 0.404762 0
0.793803 0.357143 0
0.216449 0.690482 0
0.587607 0.571429 0
0.340166 0.47619 0
0.505128 0.619048 0
0.175173 0.238083 0
0.917521 0.52381 0
0.381412 0.309524 0
0.833738 0.903234 0
0.876282 0.547619 0
0.546368 0.595238 0
0.587607 0.619048 0
0.463892 0.785705 0
0.422653 0.761894 0
0.298932 0.595238 0
0.257705 0.238095 0
0.628846 0.309524 0
0.876282 0.595238 0
0.670086 0.619048 0
0.340168 0.52381 0
0.129303 0.316369 0
0.258222 0.85424 0
0.587607 0.666667 0
0.711327 0.214289 0
0.340171 0.571429 0
0.587589 0.190507 0
0.298932 0.119048 0
0.958761 0.785714 0
0.628846 0.690476 0
0.628846 0.642857 0
0.216453 0.214284 0
0.628846 0.738095 0
0.174654 0.571022 0
0.175214 0.0952381 0
0.917585 0.142968 0
0.132606 0.690519 0
0.298743 0.832499 0
0.670086 0.714286 0
0.546352 0.166766 0
0.711325 0.738095 0
0.298932 0.404762 0
0.505138 0.190523 0
0.423368 0.141325 0
0.42265 0.47619 0
0.463889 0.404762 0
0.340167 0.428571 0
0.381409 0.452381 0
0.752564 0.714286 0
0.505128 0.428571 0
0.464098 0.166461 0
0.917521 0.809524 0
0.917426 0.856848 0
0.546368 0.404762 0
0.793803 0.738095 0
0.914208 0.911294 0
0.835043 0.761905 0
0.587607 0.380952 0
0.876282 0.785714 0
0.628846 0.357143 0
0.835043 0.333333 0
0.793803 0.309524 0
0.958761 0.261905 0
0.752564 0.380952 0
0.876282 0.261905 0
0.711325 0.357143 0
0.917521 0.285714 0
0.670086 0.380952 0
0.215205 0.879171 0
0.96104 0.928126 0
0.0740188 0.954296 0
0.177437 0.37983 0
0.177479 0.85322 0
0.285714 0.922377 0
0.0801454 0.329725 0
[...]
CELL_DATA 1026
VECTORS velocity double
0.807225 -0.0122423 0.0
-0.0117087 -0.00209089 0.0
0.241976 -0.218937 0.0
-0.0683931 0.00831709 0.0
0.242424 -0.218779 0.0
-0.0501467 0.232513 0.0
-0.00169584 0.00163992 0.0
-0.0317679 0.00385222 0.0
0.492087 0.0406029 0.0
-0.0524619 0.234131 0.0
0.576491 0.0261372 0.0
-0.0300125 -0.00428048 0.0
0.642099 -0.0131971 0.0
0.402557 0.0617425 0.0
-0.0246528 0.0705808 0.0
-0.0493188 0.140655 0.0
-0.00127187 0.0032904 0.0
-0.0447829 0.240325 0.0
-0.0177914 0.112006 0.0
-0.0712798 0.00610829 0.0
-0.00206205 0.00266689 0.0
0.642022 -0.0199223 0.0
-0.0209628 -0.00439523 0.0
-0.00498996 0.0683345 0.0
-0.00370185 0.0578679 0.0
-0.00692284 0.102331 0.0
-0.0135719 0.141786 0.0
-0.00132899 0.0055032 0.0
-0.0332691 0.0823908 0.0
-0.00805059 0.0351817 0.0
-0.0145593 0.00541547 0.0
-0.00262375 0.00183135 0.0
-0.00535829 -0.00116518 0.0
0.846698 -0.00937004 0.0
-0.00937217 0.129322 0.0
-0.0343219 0.00556624 0.0
-0.0467689 -0.00294867 0.0
0.601686 0.00555844 0.0
-0.0115825 0.0347909 0.0
0.548571 0.027666 0.0
-0.00214936 0.0371133 0.0
-0.0285156 0.207985 0.0
-0.0428973 0.146374 0.0
-0.0423698 0.170856 0.0
-0.0137415 0.014935 0.0
0.000349714 -6.39455e-05 0.0
-0.0498536 -0.000810529 0.0
0.573039 0.0188711 0.0
-0.00726148 0.013423 0.0
-0.038014 -0.00589509 0.0
0.609086 -0.0105492 0.0
-0.000552425 0.000830634 0.0
-0.00392537 0.00756427 0.0
0.0937618 0.150642 0.0
-0.0559634 0.252853 0.0
-0.0434722 0.125343 0.0
-0.0569226 0.00612606 0.0
-0.0131941 0.106674 0.0
-0.013054 0.00175374 0.0
-0.0159659 0.167972 0.0
-0.00967854 0.118458 0.0
-0.0062099 0.00102544 0.0
-0.0276167 0.152263 0.0
-0.047891 0.209598 0.0
-0.0126422 0.15899 0.0
-0.00547312 0.0877205 0.0
-0.00193934 0.0073251 0.0
-0.00569016 0.0148879 0.0
-0.0114998 0.116851 0.0
-0.00649037 -0.00408419 0.0
-0.0024093 0.012447 0.0
-0.0129544 0.0180755 0.0
-0.0324367 0.210714 0.0
0.000352784 0.000124564 0.0
-0.00847185 0.00867112 0.0
-0.00926025 0.10085 0.0
-0.035054 0.218873 0.0
-0.0135111 0.152098 0.0
-0.00297288 0.0653567 0.0
-0.00369845 0.0565881 0.0
-0.0244865 0.190264 0.0
-0.025639 0.206012 0.0
-0.0487589 0.165036 0.0
-0.00732339 0.0242012 0.0
-0.0313867 -0.00638895 0.0
0.600131 -0.0239569 0.0
-0.011764 0.00308829 0.0
0.253927 0.100411 0.0
-0.0098243 -0.0050076 0.0
0.434542 -0.095509 0.0
-0.00539831 0.00368566 0.0
-0.0293381 0.154744 0.0
-0.035498 -0.00181837 0.0
0.701477 0.00774135 0.0
0.375821 -0.132629 0.0
-0.0216235 0.060104 0.0
0.0816352 -0.359153 0.0
0.514014 0.0394657 0.0
-0.0387033 0.00506439 0.0
0.470843 0.0426381 0.0
-0.0112162 0.045007 0.0
0.692326 0.00122342 0.0
-0.0364357 -9.19832e-05 0.0
0.559072 0.0244153 0.0
-0.0307278 0.109196 0.0
-0.0240563 0.133385 0.0
-0.0455277 -0.00403663 0.0
0.597336 -0.0012394 0.0
-0.050685 1.46931e-05 0.0
-0.0114805 0.0053007 0.0
-0.0715656 0.163865 0.0
-0.0628497 0.252262 0.0
-0.00461924 0.00603078 0.0
-0.00885215 0.0838146 0.0
0.42893 -0.111941 0.0
-0.0014944 0.0416562 0.0
-0.0411657 0.193366 0.0
-0.0654465 0.148952 0.0
-0.0641434 0.173247 0.0
-0.0310153 0.201971 0.0
-0.00143024 0.00856807 0.0
-0.00238051 0.0178776 0.0
-0.01374 0.127186 0.0
-0.0101132 0.138059 0.0
-0.00320132 0.07614 0.0
-0.00239101 0.0707272 0.0
-0.0476502 0.188183 0.0
-0.0292697 0.176595 0.0
-0.00178333 0.0229026 0.0
-0.0285892 0.0951279 0.0
-0.0296036 0.131105 0.0
-0.0648961 0.253049 0.0
-0.00317331 0.0462573 0.0
-0.00345391 0.0396026 0.0
-0.00295057 -0.00156589 0.0
-0.0108939 0.0547097 0.0
-0.0239787 0.00396526 0.0
-0.0239984 0.15538 0.0
-0.0635086 0.24259 0.0
-0.0521608 0.119362 0.0
-0.000904883 -0.00294969 0.0
-0.00315411 -0.00815091 0.0
-0.000674429 -0.00181355 0.0
-0.0005107 -0.000670225 0.0
-0.000773672 -0.000953962 0.0
-0.220415 -0.114104 0.0
-0.024017 -0.0508613 0.0
-0.00401832 -0.00781586 0.0
-0.213813 -0.139336 0.0
-0.189888 -0.228467 0.0
-0.00856025 -0.0109452 0.0
-0.193608 -0.0855419 0.0
-0.215173 -0.0962428 0.0
-0.227351 -0.174448 0.0
-0.016146 -0.0362508 0.0
-0.000198214 0.000176532 0.0
0.313949 0.0740561 0.0
-0.216628 -0.159719 0.0
-0.206038 -0.206662 0.0
-0.197801 -0.283542 0.0
-0.00813542 -0.0128199 0.0
0.232251 0.0908997 0.0
-0.00451631 -0.0148313 0.0
-0.0510248 -0.0240247 0.0
0.0759275 0.152916 0.0
-0.000499185 -0.000847189 0.0
-0.0389823 -0.0174532 0.0
-0.00219942 -0.00318443 0.0
-0.0784592 -0.228936 0.0
-0.0458371 -0.0311015 0.0
-0.00193169 -0.00359412 0.0
-0.117797 0.0184741 0.0
0.15526 0.114783 0.0
-8.0327e-05 0.000193847 0.0
-0.00482851 -0.00597501 0.0
-0.0547139 -0.0313833 0.0
-0.0478855 -0.0384747 0.0
-0.219105 -0.206125 0.0
-0.218308 -0.0719522 0.0
-0.0828635 -0.10771 0.0
-0.0944224 0.0265034 0.0
-0.0283722 -0.0772017 0.0
-0.0606769 -0.120532 0.0
-0.227683 -0.152953 0.0
-0.0986178 -0.0965361 0.0
-0.187689 -0.251551 0.0
-0.00175616 -0.00989373 0.0
-0.0429301 -0.284352 0.0
-0.160879 -0.288461 0.0
-0.0879385 -0.0585316 0.0
0.132611 0.130044 0.0
-0.0919398 -0.284276 0.0
-0.0147938 -0.0549392 0.0
-0.229299 -0.160473 0.0
-0.211967 -0.118776 0.0
0.478342 0.0156056 0.0
0.190485 0.0846921 0.0
-0.00826193 -0.0245887 0.0
-0.110061 -0.254575 0.0
-0.030032 -0.178538 0.0
-0.203071 -0.259335 0.0
-0.113148 0.0246411 0.0
-0.0466271 0.201269 0.0
-0.0706504 -0.238248 0.0
-0.178751 -0.307053 0.0
-0.139998 0.084984 0.0
-0.15564 0.0377896 0.0
-0.100166 0.0225246 0.0
-0.0407385 0.243018 0.0
-0.0745043 0.0911568 0.0
-0.128707 0.0929468 0.0
-0.150319 0.0264865 0.0
0.393801 -0.0416417 0.0
0.0438279 0.159361 0.0
-0.225811 -0.0583337 0.0
-0.134013 -0.0182119 0.0
-0.0675087 0.160136 0.0
-0.145028 0.150595 0.0
-0.0637608 0.0438675 0.0
-0.0584016 -0.187036 0.0
-0.000802106 0.000458177 0.0
-0.0363777 -0.228229 0.0
-0.0550552 -0.403485 0.0
-0.0218686 0.22395 0.0
-0.0993607 0.0346957 0.0
-0.0985618 -0.0549764 0.0
-0.0402094 0.150939 0.0
0.0670801 0.17017 0.0
-0.0426766 0.241169 0.0
-0.0124285 -0.131741 0.0
0.730341 0.0176121 0.0
0.00628887 0.175632 0.0
-0.140964 -0.0816045 0.0
-0.0408822 -0.101637 0.0
-0.031567 -0.0732514 0.0
0.836839 -0.00525496 0.0
-0.141162 0.0711039 0.0
0.0704486 0.166801 0.0
-0.132047 0.16139 0.0
0.0199337 0.194052 0.0
-0.00067484 0.000478054 0.0
-0.0033959 -0.0248828 0.0
0.76514 0.0200722 0.0
-0.098694 -0.458545 0.0
-0.0953369 0.213406 0.0
-0.128018 0.0539151 0.0
0.404662 -0.0266742 0.0
0.720907 -0.0409894 0.0
-0.112087 -0.447735 0.0
-0.231212 -0.0704339 0.0
-0.0333185 0.235514 0.0
0.154339 -0.0300759 0.0
-0.154631 0.0155097 0.0
-0.169328 -0.00163028 0.0
-0.158009 -0.0222027 0.0
-0.168534 -0.0313113 0.0
0.0150733 -0.355441 0.0
-0.200504 -0.101931 0.0
0.805193 0.0136768 0.0
-0.203296 -0.226304 0.0
-0.220586 -0.0998353 0.0
-0.230561 -0.0736803 0.0
-0.198551 0.0515 0.0
-0.135559 -0.00891122 0.0
0.158222 -0.21726 0.0
-0.0137105 -0.0148128 0.0
-0.0868982 -0.484023 0.0
-0.173498 0.0235147 0.0
-0.0520351 -0.13685 0.0
-0.14638 -0.222721 0.0
-0.205683 -0.184465 0.0
-0.000434762 -0.000540755 0.0
-0.181581 0.104027 0.0
-0.0814151 0.200349 0.0
-0.0611059 -0.0488975 0.0
0.0211416 -0.292851 0.0
-0.0500842 0.247359 0.0
-0.0619997 -0.00412385 0.0
-0.00250823 -0.0167089 0.0
-0.0475247 -0.23488 0.0
-0.111258 -0.399396 0.0
-0.171332 -0.330612 0.0
-0.14551 -0.339902 0.0
-0.219936 -0.220955 0.0
-0.231881 -0.121878 0.0
-0.219316 -0.00132677 0.0
-0.224065 -0.0317978 0.0
-0.213216 0.00296875 0.0
-0.106148 0.0723472 0.0
-0.145902 0.0068846 0.0
-0.113467 -0.0938624 0.0
0.206492 0.0687998 0.0
0.343629 -0.087195 0.0
-0.00454446 -0.00458389 0.0
-0.156574 0.0592815 0.0
0.0529892 -0.337135 0.0
0.107803 0.123264 0.0
-0.0251242 -0.105827 0.0
-0.115555 -0.23763 0.0
-0.165633 -0.266078 0.0
-0.200274 0.0127514 0.0
-0.00234282 0.000755715 0.0
-0.211797 0.0355893 0.0
-0.192083 0.0820761 0.0
-0.172618 0.0996903 0.0
-0.0854894 0.18481 0.0
-0.0880428 0.214904 0.0
-0.108188 0.150267 0.0
0.297796 0.034091 0.0
-0.0132392 -0.0116022 0.0
0.158745 -0.257961 0.0
-0.0767208 -0.00194555 0.0
-0.150516 0.0614957 0.0
-0.200201 0.0643376 0.0
-0.0617388 0.238899 0.0
-0.132621 -0.288885 0.0
0.0404404 0.0798799 0.0
0.087137 0.0865207 0.0
-0.114149 0.160524 0.0
-0.0719989 -0.0488491 0.0
0.177709 -0.136359 0.0
-0.127879 0.153611 0.0
-0.0288071 0.193857 0.0
-0.102836 -0.14174 0.0
-0.0116195 -0.000495784 0.0
-0.00129864 -0.00630455 0.0
0.624061 0.0337574 0.0
-0.0318496 -0.141359 0.0
-0.0493664 -0.344357 0.0
-0.0146477 -0.0742652 0.0
-0.229635 -0.102981 0.0
-0.109813 0.190918 0.0
-0.0532432 0.24907 0.0
-0.166647 0.119913 0.0
-0.140817 0.115036 0.0
-0.102643 0.102525 0.0
-0.112357 0.112587 0.0
-0.119134 0.072595 0.0
-0.148608 0.0484339 0.0
-0.149409 -0.0470709 0.0
-0.165348 -0.0453866 0.0
0.52122 -0.0544286 0.0
-0.0366907 0.0654918 0.0
-0.185054 0.0196639 0.0
-0.189114 0.00293317 0.0
-0.0368154 -0.106558 0.0
-0.124567 -0.180499 0.0
-0.159453 -0.131699 0.0
-0.00978491 0.000448425 0.0
-0.0190854 -0.00104366 0.0
-0.00676919 -0.000910932 0.0
-0.00235405 -0.0147888 0.0
-0.0126196 -0.119898 0.0
-0.0100313 -0.101028 0.0
0.788257 -0.0236527 0.0
0.665234 -0.0493643 0.0
0.796422 0.00922217 0.0
0.825629 0.0118259 0.0
-0.00130935 0.0112539 0.0
-0.0194294 -0.0773138 0.0
-0.156961 0.142661 0.0
-0.030431 0.228112 0.0
-0.125396 -0.307898 0.0
-0.0800901 0.0934556 0.0
-0.0636553 0.0525674 0.0
-0.125248 -0.0548528 0.0
0.135081 -0.0975636 0.0
0.0661928 -0.282224 0.0
-0.0777229 -0.0376721 0.0
-0.0320815 -0.0172534 0.0
-0.0529865 0.0355367 0.0
-0.0791734 -0.147033 0.0
-0.102132 -0.156831 0.0
-0.00916766 0.0768234 0.0
0.326202 0.0784292 0.0
-0.0389626 0.00188075 0.0
-0.153245 -0.382734 0.0
0.057683 0.16826 0.0
-0.0939327 0.153228 0.0
-0.129212 0.0659659 0.0
-0.14727 -0.00364224 0.0
-0.166766 0.0119601 0.0
-0.144285 -0.0260646 0.0
-0.176123 -0.0870262 0.0
-0.178433 -0.151994 0.0
-0.172929 -0.107071 0.0
-0.167807 0.0371854 0.0
-0.123075 -0.198254 0.0
-0.184427 -0.158808 0.0
-1.00468e-05 0.00017368 0.0
-0.00314106 0.0011413 0.0
-1.04885e-06 0.000337784 0.0
-0.00520925 -0.04198 0.0
-0.00784159 -0.0683302 0.0
-0.00655576 -0.0571605 0.0
0.547532 -0.0870707 0.0
0.883648 -0.00562298 0.0
0.879196 0.00243233 0.0
0.820971 0.00488108 0.0
-0.0556629 -0.291631 0.0
-0.0444651 0.245989 0.0
-0.0425778 0.24159 0.0
-0.0869959 0.140898 0.0
-0.0897492 0.104915 0.0
-0.072928 0.0720552 0.0
-0.130527 0.0182378 0.0
-0.02037 -0.022452 0.0
0.308129 -0.00166977 0.0
-0.0350347 0.0267819 0.0
-0.204542 0.010615 0.0
-0.0760512 -0.159143 0.0
-0.00779686 0.000801145 0.0
-0.162321 0.122443 0.0
-0.135133 0.160239 0.0
-0.00445378 0.0386257 0.0
-0.0726172 0.139359 0.0
0.266376 -0.0966728 0.0
-0.0520227 -0.0157559 0.0
0.292404 0.0819248 0.0
-0.0863374 0.00691496 0.0
-0.0193903 -0.00670792 0.0
-0.0340742 0.0208841 0.0
-0.0187571 0.0264318 0.0
-0.00962143 0.0231772 0.0
-0.0929423 -0.204193 0.0
-0.143577 -0.243019 0.0
-0.186817 -0.179174 0.0
-0.0198941 0.000549669 0.0
0.604117 -0.064909 0.0
0.686782 0.0229162 0.0
-0.00336145 0.0318106 0.0
-0.194663 -0.306864 0.0
-0.172933 -0.316783 0.0
-0.212472 -0.244256 0.0
-0.0755048 0.22362 0.0
-0.0865259 0.221794 0.0
0.00405274 0.201145 0.0
-0.0494468 0.251738 0.0
-0.0566854 0.25505 0.0
-0.0409887 0.0802591 0.0
0.224842 0.0313739 0.0
-0.0941888 0.0477688 0.0
-0.115434 0.0491893 0.0
-0.101025 -0.0255288 0.0
-0.0724871 -0.0291949 0.0
-0.0843962 -0.271729 0.0
-0.0442346 0.0349425 0.0
-0.0394286 -0.184422 0.0
-0.0469123 -0.143024 0.0
-0.0647798 -0.17936 0.0
-0.0156584 0.00108713 0.0
-0.00248932 0.0232094 0.0
-0.0292048 0.229341 0.0
-0.0456514 0.252002 0.0
-0.00418257 0.208852 0.0
-0.00321035 0.191418 0.0
-0.0744919 0.0621554 0.0
-0.0515903 0.0603039 0.0
-0.0791382 0.0325105 0.0
-0.0284007 -0.0371354 0.0
0.305767 -0.022674 0.0
0.212559 -0.0680662 0.0
0.0598054 -0.230768 0.0
-0.0323428 0.227063 0.0
-0.011798 -0.0227364 0.0
-0.0728737 -0.0189462 0.0
-0.0226313 -0.0112307 0.0
-0.0748861 0.0248859 0.0
-0.0813504 0.0224337 0.0
-0.0599568 0.0120225 0.0
-0.0381766 0.0157629 0.0
-0.0283959 0.0106248 0.0
-0.0169896 0.0302251 0.0
-0.201823 -0.0240919 0.0
-0.0215144 0.177862 0.0
-0.0632548 -0.352211 0.0
-0.0111122 -0.0528251 0.0
-0.181377 -0.34096 0.0
-0.204156 -0.282904 0.0
-0.224053 -0.0126522 0.0
-0.065371 0.208198 0.0
-0.069666 0.229307 0.0
-0.0401105 0.129389 0.0
0.090842 0.157053 0.0
-0.130525 0.0817575 0.0
-0.0565282 -0.0186046 0.0
0.0965874 0.0116447 0.0
-0.105484 0.174292 0.0
-0.0916997 0.0384318 0.0
-0.0711658 0.0344221 0.0
-0.116148 -0.062233 0.0
-0.0933539 -0.0445722 0.0
-0.0914607 -0.0697138 0.0
0.226128 -0.0398752 0.0
0.0777572 0.107332 0.0
0.142393 -0.179244 0.0
-0.0412684 0.241355 0.0
0.030865 0.123444 0.0
0.0233504 0.143323 0.0
-0.191734 0.0435943 0.0
-0.14567 0.0164239 0.0
-0.0171535 -0.00998789 0.0
-0.0593519 0.0276322 0.0
-0.0640924 -0.0580751 0.0
-0.022062 0.000137598 0.0
0.887683 -0.000751041 0.0
-0.00210121 0.0284722 0.0
-0.00217291 0.0210526 0.0
-0.203043 0.0603599 0.0
-0.134682 0.171759 0.0
-0.117736 0.189838 0.0
-0.0945062 0.202737 0.0
-0.0764151 0.231019 0.0
-0.0481382 0.252826 0.0
-0.0491549 0.254132 0.0
-0.122552 0.108632 0.0
-0.108852 0.183822 0.0
-0.0678795 0.0929507 0.0
-0.0613883 0.0716076 0.0
-0.118098 -0.0439457 0.0
-0.0380632 -0.035935 0.0
0.469864 0.0283213 0.0
-0.122635 0.183086 0.0
-0.0767616 0.00110003 0.0
-0.00597207 -0.0148286 0.0
-0.0410836 0.0213779 0.0
-0.0265116 0.0302224 0.0
-0.00602657 -0.0499922 0.0
0.768879 0.0119412 0.0
0.716153 0.029292 0.0
-0.00253283 0.0451239 0.0
-0.00833186 -0.0364216 0.0
-0.168106 0.123975 0.0
-0.142552 0.160057 0.0
-0.11805 0.175485 0.0
-0.132174 0.138004 0.0
-0.0448161 0.237601 0.0
-0.0505668 0.25195 0.0
-0.0531819 0.234582 0.0
-0.0861029 0.20028 0.0
-0.0829656 0.18909 0.0
-0.0966685 0.0692828 0.0
-0.106576 0.0543611 0.0
-0.131956 0.0353653 0.0
-0.0508116 -0.0633623 0.0
-0.0685647 -0.0396697 0.0
0.224602 0.105619 0.0
0.253659 0.0768293 0.0
-0.0129352 0.156917 0.0
-0.0785312 -0.0160047 0.0
-0.0181328 0.178551 0.0
-0.00165506 -0.00164281 0.0
-0.0747477 0.0160045 0.0
-0.00873369 0.000507723 0.0
-0.017911 0.000943181 0.0
-0.0107713 0.000258085 0.0
0.835869 -0.000570933 0.0
0.852465 0.00787629 0.0
-0.0190048 -0.101801 0.0
-0.0694663 -0.412221 0.0
-0.0990468 -0.411653 0.0
-0.0639232 0.220891 0.0
0.145561 0.0691438 0.0
0.228867 0.0110229 0.0
-0.0833071 0.0825758 0.0
-0.106012 0.0900177 0.0
-0.0586852 0.0807272 0.0
-0.112231 0.0390736 0.0
-0.100436 -0.110085 0.0
0.123976 0.105857 0.0
0.112172 -0.138471 0.0
0.0389107 -0.178903 0.0
-0.0129293 -0.0204526 0.0
-0.00786837 -0.00658512 0.0
-0.0202758 0.189405 0.0
-0.0448566 0.185639 0.0
-0.008845 -0.425749 0.0
-0.0635533 -0.00254195 0.0
-0.0515672 0.0282289 0.0
-0.0443818 0.015369 0.0
-0.0438078 0.0421276 0.0
-0.0239459 0.00624751 0.0
0.393991 0.0046609 0.0
-0.169347 -0.194082 0.0
-0.150705 0.0905332 0.0
-0.0196753 -0.26838 0.0
0.88288 0.00111403 0.0
0.875009 0.00489963 0.0
0.870091 0.00576323 0.0
0.816252 0.00427779 0.0
-0.00157038 0.041118 0.0
-0.00167377 0.0136193 0.0
-0.000956812 0.00264627 0.0
-0.09339 0.128747 0.0
-0.0848809 0.116685 0.0
-0.150367 -0.0709227 0.0
0.185331 0.11431 0.0
0.0115864 -0.233606 0.0
0.222806 -0.198293 0.0
-0.12199 0.176455 0.0
-0.0200357 0.0177001 0.0
-0.15869 -0.170414 0.0
-0.0250618 -0.241916 0.0
-0.21823 0.0138705 0.0
-0.0708051 0.232859 0.0
-0.0543792 0.243058 0.0
-0.0520398 0.255894 0.0
0.0873743 -0.0536354 0.0
-0.117771 0.0851828 0.0
-0.136111 0.0461495 0.0
-0.133708 0.0099144 0.0
-0.142881 -0.0581326 0.0
-0.00917082 -0.17503 0.0
0.390439 0.017138 0.0
0.390403 -0.097307 0.0
-0.0721778 -0.476343 0.0
-0.0345895 -0.022882 0.0
-0.0271991 0.0249188 0.0
-0.0404762 0.0572863 0.0
-0.196927 -0.140326 0.0
-0.153654 -0.0196551 0.0
0.636354 0.047136 0.0
-0.131715 0.175248 0.0
-0.111181 0.154062 0.0
-0.16473 -0.220331 0.0
-0.0781911 0.220286 0.0
-0.0771719 0.210939 0.0
-0.0967034 0.125851 0.0
-0.0702048 0.117211 0.0
-0.00485344 0.117798 0.0
-0.0689238 0.187458 0.0
0.0957502 0.0390377 0.0
0.0391471 -0.00714916 0.0
-0.0914794 0.177471 0.0
-0.086275 0.165345 0.0
-0.158755 -0.0096862 0.0
-0.124659 -0.0361352 0.0
-0.101737 -0.0397228 0.0
-0.0506434 -0.0550536 0.0
0.0735335 -0.0917562 0.0
-0.17165 0.0676635 0.0
-0.0695239 -0.0105692 0.0
-0.0728215 -0.00771339 0.0
-0.0178119 0.175046 0.0
-0.0243505 0.17536 0.0
-0.0558362 0.0208069 0.0
-0.0960942 0.0116927 0.0
0.0568976 0.142582 0.0
-0.180736 -0.00844773 0.0
-0.199731 -0.00441894 0.0
-0.16922 -0.215188 0.0
-0.146553 -0.177947 0.0
0.276378 0.0887828 0.0
-0.188995 0.077802 0.0
-0.158699 0.140844 0.0
-0.104566 0.173065 0.0
-0.0686661 0.235864 0.0
-0.0584453 0.245244 0.0
-0.0614224 0.242631 0.0
-0.0951756 0.0805641 0.0
-0.107205 0.065365 0.0
-0.110137 -0.0133953 0.0
0.206542 -0.166675 0.0
-0.0324023 0.0459004 0.0
-0.0270046 0.0580814 0.0
-0.16216 0.0640099 0.0
-0.171243 0.0819819 0.0
-0.127032 -0.308783 0.0
-0.139016 -0.405678 0.0
-0.170507 -0.364184 0.0
-0.224332 -0.182209 0.0
-0.0347823 0.217216 0.0
-0.0594611 0.228473 0.0
-0.0730513 0.0428546 0.0
-0.109733 -0.0804724 0.0
-0.0399379 0.212921 0.0
-0.0964647 -0.0135298 0.0
-0.0229014 0.0402294 0.0
-0.0203375 0.0442644 0.0
-0.0794043 0.0137713 0.0
-0.181222 -0.0244683 0.0
-0.170559 0.0511594 0.0
-0.125192 0.106918 0.0
-0.00880172 -0.000728139 0.0
-0.0150764 -0.00135873 0.0
-0.00455472 -0.0357483 0.0
-0.143991 -0.418868 0.0
-0.168549 -0.362156 0.0
-0.188041 -0.295097 0.0
0.017959 0.18735 0.0
-0.00322482 0.0933326 0.0
-0.0838385 0.0297759 0.0
0.0428885 0.0537697 0.0
0.154459 0.0479122 0.0
-0.0948659 -0.0306605 0.0
0.286835 0.0494993 0.0
-0.0798277 -0.0261693 0.0
-0.0925008 -0.0184237 0.0
-0.0585499 -0.0231642 0.0
-0.0344046 0.0396954 0.0
-0.161282 0.0792115 0.0
-0.0970769 -0.189656 0.0
-0.130095 -0.0335973 0.0
-0.0397764 -0.35426 0.0
0.538365 0.0532305 0.0
0.00342259 0.206383 0.0
-0.119111 0.0332037 0.0
-0.0455446 0.209377 0.0
-0.0622943 0.0198395 0.0
-0.0825978 -0.295147 0.0
-0.0128185 -4.66139e-05 0.0
-0.0197242 -0.194688 0.0
-0.0187592 -0.217833 0.0
-0.216241 -0.229432 0.0
-0.214152 -0.160332 0.0
-0.232809 -0.104435 0.0
-0.222335 -0.0465397 0.0
-0.23087 -0.0547883 0.0
-0.197224 -0.0342613 0.0
-0.183343 -0.0490325 0.0
-0.189583 -0.0893404 0.0
-0.107791 0.201584 0.0
-0.0517044 0.225377 0.0
-0.0646085 0.209536 0.0
-0.0295188 0.203877 0.0
-0.0611014 0.196186 0.0
-0.00882976 0.0054953 0.0
-0.085153 0.0606062 0.0
-0.115997 -0.0272924 0.0
0.364804 0.0449776 0.0
-0.0575786 -0.0142353 0.0
-0.0195331 0.013418 0.0
-0.19881 0.0303957 0.0
-0.189775 0.00130743 0.0
-0.0157519 -0.154172 0.0
-0.0927341 -0.354645 0.0
-0.211854 0.0278219 0.0
-0.144782 0.141194 0.0
-0.146623 0.155543 0.0
-0.0656889 0.178776 0.0
-0.0218298 0.216073 0.0
-0.053329 0.0519532 0.0
-0.137711 0.0269957 0.0
-0.14038 -0.036578 0.0
0.347788 0.0551341 0.0
-0.0270618 -0.0210533 0.0
-0.0555376 0.0134917 0.0
-0.00106001 -0.000613217 0.0
-0.00311808 -0.0214146 0.0
-0.0100244 -0.0914393 0.0
-0.00813411 -0.076553 0.0
-0.0241706 -0.136368 0.0
-0.189582 -0.248012 0.0
-0.202841 -0.181125 0.0
-0.052678 0.235845 0.0
-0.0449721 0.0508439 0.0
-0.0910342 -0.00540505 0.0
-0.121601 -0.0746567 0.0
0.102873 0.153549 0.0
-0.191566 -0.0346414 0.0
-0.00132735 -0.00614826 0.0
-0.00406637 -0.0302826 0.0
-0.129455 -0.436623 0.0
-0.0474264 0.252834 0.0
-0.0785401 -0.0706804 0.0
-0.0385723 -0.0426002 0.0
-0.0201322 -0.0265262 0.0
-0.0457273 0.0779161 0.0
-0.018764 -0.013973 0.0
-0.162152 0.0946227 0.0
-0.110811 -0.0898797 0.0
-0.23048 -0.123744 0.0
-0.21646 -0.0619735 0.0
-0.22695 -0.0243544 0.0
-0.0890833 0.216335 0.0
-0.0849137 0.050691 0.0
0.155133 0.130875 0.0
-0.0319086 0.224683 0.0
-0.165262 0.0278349 0.0
0.33982 -0.134648 0.0
0.406164 0.0577504 0.0
-0.021557 -0.0540976 0.0
-0.174312 0.101854 0.0
-0.0155607 -0.170221 0.0
-0.137534 -0.0743622 0.0
-0.213009 0.0216165 0.0
-0.0990098 0.19684 0.0
0.0315756 -0.0430355 0.0
-0.0629133 -0.058073 0.0
-0.0492918 -0.0805524 0.0
0.307096 -0.117021 0.0
-0.0389172 0.228899 0.0
-0.150725 -0.385521 0.0
-0.216389 -0.0129641 0.0
0.022399 0.192703 0.0
-0.0994675 0.204811 0.0
-0.112056 -0.00694987 0.0
-0.0281051 -0.026317 0.0
-0.107091 0.126027 0.0
-0.188772 0.0343499 0.0
-0.180954 0.0671272 0.0
-0.185092 0.0852878 0.0
-0.189757 0.066715 0.0
-0.0433447 0.22668 0.0
-0.100727 0.00208811 0.0
-0.0888406 -0.150686 0.0
-0.169868 0.122569 0.0
-0.0476645 0.246213 0.0
0.15939 -0.00192007 0.0
-0.0254239 0.0145697 0.0
-0.0231857 0.0101336 0.0