# vtk DataFile Version 3.0
Malha 2D com triângulos e temperatura
ASCII
DATASET UNSTRUCTURED_GRID

POINTS 961 double
0 0 0
1 0 0
1 1 0
0 1 0
0.0333333 0 0
0.0666667 0 0
0.1 0 0
0.133333 0 0
0.166667 0 0
0.2 0 0
0.233333 0 0
0.266667 0 0
0.3 0 0
0.333333 0 0
0.366667 0 0
0.4 0 0
0.433333 0 0
0.466667 0 0
0.5 0 0
0.533333 0 0
0.566667 0 0
0.6 0 0
0.633333 0 0
0.666667 0 0
0.7 0 0
0.733333 0 0
0.766667 0 0
0.8 0 0
0.833333 0 0
0.866667 0 0
0.9 0 0
0.933333 0 0
0.966667 0 0
1 0.0333333 0
1 0.0666667 0
1 0.1 0
1 0.133333 0
1 0.166667 0
1 0.2 0
1 0.233333 0
1 0.266667 0
1 0.3 0
1 0.333333 0
1 0.366667 0
1 0.4 0
1 0.433333 0
1 0.466667 0
1 0.5 0
1 0.533333 0
1 0.566667 0
1 0.6 0
1 0.633333 0
1 0.666667 0
1 0.7 0
1 0.733333 0
1 0.766667 0
1 0.8 0
1 0.833333 0
1 0.866667 0
1 0.9 0
1 0.933333 0
1 0.966667 0
0.966667 1 0
0.933333 1 0
0.9 1 0
0.866667 1 0
0.833333 1 0
0.8 1 0
0.766667 1 0
0.733333 1 0
0.7 1 0
0.666667 1 0
0.633333 1 0
0.6 1 0
0.566667 1 0
0.533333 1 0
0.5 1 0
0.466667 1 0
0.433333 1 0
0.4 1 0
0.366667 1 0
0.333333 1 0
0.3 1 0
0.266667 1 0
0.233333 1 0
0.2 1 0
0.166667 1 0
0.133333 1 0
0.1 1 0
0.0666667 1 0
0.0333333 1 0
0 0.966667 0
0 0.933333 0
0 0.9 0
0 0.866667 0
0 0.833333 0
0 0.8 0
0 0.766667 0
0 0.733333 0
0 0.7 0
0 0.666667 0
0 0.633333 0
0 0.6 0
0 0.566667 0
0 0.533333 0
0 0.5 0
0 0.466667 0
0 0.433333 0
0 0.4 0
0 0.366667 0
0 0.333333 0
0 0.3 0
0 0.266667 0
0 0.233333 0
0 0.2 0
0 0.166667 0
0 0.133333 0
0 0.1 0
0 0.0666667 0
0 0.0333333 0
0.0333333 0.0333333 0
0.0333333 0.0666667 0
0.0333333 0.1 0
0.0333333 0.133333 0
0.0333333 0.166667 0
0.0333333 0.2 0
0.0333333 0.233333 0
0.0333333 0.266667 0
0.0333333 0.3 0
0.0333333 0.333333 0
0.0333333 0.366667 0
0.0333333 0.4 0
0.0333333 0.433333 0
0.0333333 0.466667 0
0.0333333 0.5 0
0.0333333 0.533333 0
0.0333333 0.566667 0
0.0333333 0.6 0
0.0333333 0.633333 0
0.0333333 0.666667 0
0.0333333 0.7 0
0.0333333 0.733333 0
0.0333333 0.766667 0
0.0333333 0.8 0
0.0333333 0.833333 0
0.0333333 0.866667 0
0.0333333 0.9 0
0.0333333 0.933333 0
0.0333333 0.966667 0
0.0666667 0.0333333 0
0.0666667 0.0666667 0
0.0666667 0.1 0
0.0666667 0.133333 0
0.0666667 0.166667 0
0.0666667 0.2 0
0.0666667 0.233333 0
0.0666667 0.266667 0
0.0666667 0.3 0
0.0666667 0.333333 0
0.0666667 0.366667 0
0.0666667 0.4 0
0.0666667 0.433333 0
0.0666667 0.466667 0
0.0666667 0.5 0
0.0666667 0.533333 0
0.0666667 0.566667 0
0.0666667 0.6 0
0.0666667 0.633333 0
0.0666667 0.666667 0
0.0666667 0.7 0
0.0666667 0.733333 0
0.0666667 0.766667 0
0.0666667 0.8 0
0.0666667 0.833333 0
0.0666667 0.866667 0
0.0666667 0.9 0
0.0666667 0.933333 0
0.0666667 0.966667 0
0.1 0.0333333 0
0.1 0.0666667 0
0.1 0.1 0
0.1 0.133333 0
0.1 0.166667 0
0.1 0.2 0
0.1 0.233333 0
0.1 0.266667 0
0.1 0.3 0
0.1 0.333333 0
0.1 0.366667 0
0.1 0.4 0
0.1 0.433333 0
0.1 0.466667 0
0.1 0.5 0
0.1 0.533333 0
0.1 0.566667 0
0.1 0.6 0
0.1 0.633333 0
0.1 0.666667 0
0.1 0.7 0
0.1 0.733333 0
0.1 0.766667 0
0.1 0.8 0
0.1 0.833333 0
0.1 0.866667 0
0.1 0.9 0
0.1 0.933333 0
0.1 0.966667 0
0.133333 0.0333333 0
0.133333 0.0666667 0
0.133333 0.1 0
0.133333 0.133333 0
0.133333 0.166667 0
0.133333 0.2 0
0.133333 0.233333 0
0.133333 0.266667 0
0.133333 0.3 0
0.133333 0.333333 0
0.133333 0.366667 0
0.133333 0.4 0
0.133333 0.433333 0
0.133333 0.466667 0
0.133333 0.5 0
0.133333 0.533333 0
0.133333 0.566667 0
0.133333 0.6 0
0.133333 0.633333 0
0.133333 0.666667 0
0.133333 0.7 0
0.133333 0.733333 0
0.133333 0.766667 0
0.133333 0.8 0
0.133333 0.833333 0
0.133333 0.866667 0
0.133333 0.9 0
0.133333 0.933333 0
0.133333 0.966667 0
0.166667 0.0333333 0
0.166667 0.0666667 0
0.166667 0.1 0
0.166667 0.133333 0
0.166667 0.166667 0
0.166667 0.2 0
0.166667 0.233333 0
0.166667 0.266667 0
0.166667 0.3 0
0.166667 0.333333 0
0.166667 0.366667 0
0.166667 0.4 0
0.166667 0.433333 0
0.166667 0.466667 0
0.166667 0.5 0
0.166667 0.533333 0
0.166667 0.566667 0
0.166667 0.6 0
0.166667 0.633333 0
0.166667 0.666667 0
0.166667 0.7 0
0.166667 0.733333 0
0.166667 0.766667 0
0.166667 0.8 0
0.166667 0.833333 0
0.166667 0.866667 0
0.166667 0.9 0
0.166667 0.933333 0
0.166667 0.966667 0
0.2 0.0333333 0
0.2 0.0666667 0
0.2 0.1 0
0.2 0.133333 0
0.2 0.166667 0
0.2 0.2 0
0.2 0.233333 0
0.2 0.266667 0
0.2 0.3 0
0.2 0.333333 0
0.2 0.366667 0
0.2 0.4 0
0.2 0.433333 0
0.2 0.466667 0
0.2 0.5 0
0.2 0.533333 0
0.2 0.566667 0
0.2 0.6 0
0.2 0.633333 0
0.2 0.666667 0
0.2 0.7 0
0.2 0.733333 0
0.2 0.766667 0
0.2 0.8 0
0.2 0.833333 0
0.2 0.866667 0
0.2 0.9 0
0.2 0.933333 0
0.2 0.966667 0
0.233333 0.0333333 0
0.233333 0.0666667 0
0.233333 0.1 0
0.233333 0.133333 0
0.233333 0.166667 0
0.233333 0.2 0
0.233333 0.233333 0
0.233333 0.266667 0
0.233333 0.3 0
0.233333 0.333333 0
0.233333 0.366667 0
0.233333 0.4 0
0.233333 0.433333 0
0.233333 0.466667 0
0.233333 0.5 0
0.233333 0.533333 0
0.233333 0.566667 0
0.233333 0.6 0
0.233333 0.633333 0
0.233333 0.666667 0
0.233333 0.7 0
0.233333 0.733333 0
0.233333 0.766667 0
0.233333 0.8 0
0.233333 0.833333 0
0.233333 0.866667 0
0.233333 0.9 0
0.233333 0.933333 0
0.233333 0.966667 0
0.266667 0.0333333 0
0.266667 0.0666667 0
0.266667 0.1 0
0.266667 0.133333 0
0.266667 0.166667 0
0.266667 0.2 0
0.266667 0.233333 0
0.266667 0.266667 0
0.266667 0.3 0
0.266667 0.333333 0
0.266667 0.366667 0
0.266667 0.4 0
0.266667 0.433333 0
0.266667 0.466667 0
0.266667 0.5 0
0.266667 0.533333 0
0.266667 0.566667 0
0.266667 0.6 0
0.266667 0.633333 0
0.266667 0.666667 0
0.266667 0.7 0
0.266667 0.733333 0
0.266667 0.766667 0
0.266667 0.8 0
0.266667 0.833333 0
0.266667 0.866667 0
0.266667 0.9 0
0.266667 0.933333 0
0.266667 0.966667 0
0.3 0.0333333 0
0.3 0.0666667 0
0.3 0.1 0
0.3 0.133333 0
0.3 0.166667 0
0.3 0.2 0
0.3 0.233333 0
0.3 0.266667 0
0.3 0.3 0
0.3 0.333333 0
0.3 0.366667 0
0.3 0.4 0
0.3 0.433333 0
0.3 0.466667 0
0.3 0.5 0
0.3 0.533333 0
0.3 0.566667 0
0.3 0.6 0
0.3 0.633333 0
0.3 0.666667 0
0.3 0.7 0
0.3 0.733333 0
0.3 0.766667 0
0.3 0.8 0
0.3 0.833333 0
0.3 0.866667 0
0.3 0.9 0
0.3 0.933333 0
0.3 0.966667 0
0.333333 0.0333333 0
0.333333 0.0666667 0
0.333333 0.1 0
0.333333 0.133333 0
0.333333 0.166667 0
0.333333 0.2 0
0.333333 0.233333 0
0.333333 0.266667 0
0.333333 0.3 0
0.333333 0.333333 0
0.333333 0.366667 0
0.333333 0.4 0
0.333333 0.433333 0
0.333333 0.466667 0
0.333333 0.5 0
0.333333 0.533333 0
0.333333 0.566667 0
0.333333 0.6 0
0.333333 0.633333 0
0.333333 0.666667 0
0.333333 0.7 0
0.333333 0.733333 0
0.333333 0.766667 0
0.333333 0.8 0
0.333333 0.833333 0
0.333333 0.866667 0
0.333333 0.9 0
0.333333 0.933333 0
0.333333 0.966667 0
0.366667 0.0333333 0
0.366667 0.0666667 0
0.366667 0.1 0
0.366667 0.133333 0
0.366667 0.166667 0
0.366667 0.2 0
0.366667 0.233333 0
0.366667 0.266667 0
0.366667 0.3 0
0.366667 0.333333 0
0.366667 0.366667 0
0.366667 0.4 0
0.366667 0.433333 0
0.366667 0.466667 0
0.366667 0.5 0
0.366667 0.533333 0
0.366667 0.566667 0
0.366667 0.6 0
0.366667 0.633333 0
0.366667 0.666667 0
0.366667 0.7 0
0.366667 0.733333 0
0.366667 0.766667 0
0.366667 0.8 0
0.366667 0.833333 0
0.366667 0.866667 0
0.366667 0.9 0
0.366667 0.933333 0
0.366667 0.966667 0
0.4 0.0333333 0
0.4 0.0666667 0
0.4 0.1 0
0.4 0.133333 0
0.4 0.166667 0
0.4 0.2 0
0.4 0.233333 0
0.4 0.266667 0
0.4 0.3 0
0.4 0.333333 0
0.4 0.366667 0
0.4 0.4 0
0.4 0.433333 0
0.4 0.466667 0
0.4 0.5 0
0.4 0.533333 0
0.4 0.566667 0
0.4 0.6 0
0.4 0.633333 0
0.4 0.666667 0
0.4 0.7 0
0.4 0.733333 0
0.4 0.766667 0
0.4 0.8 0
0.4 0.833333 0
0.4 0.866667 0
0.4 0.9 0
0.4 0.933333 0
0.4 0.966667 0
0.433333 0.0333333 0
0.433333 0.0666667 0
0.433333 0.1 0
0.433333 0.133333 0
0.433333 0.166667 0
0.433333 0.2 0
0.433333 0.233333 0
0.433333 0.266667 0
0.433333 0.3 0
0.433333 0.333333 0
0.433333 0.366667 0
0.433333 0.4 0
0.433333 0.433333 0
0.433333 0.466667 0
0.433333 0.5 0
0.433333 0.533333 0
0.433333 0.566667 0
0.433333 0.6 0
0.433333 0.633333 0
0.433333 0.666667 0
0.433333 0.7 0
0.433333 0.733333 0
0.433333 0.766667 0
0.433333 0.8 0
0.433333 0.833333 0
0.433333 0.866667 0
0.433333 0.9 0
0.433333 0.933333 0
0.433333 0.966667 0
0.466667 0.0333333 0
0.466667 0.0666667 0
0.466667 0.1 0
0.466667 0.133333 0
0.466667 0.166667 0
0.466667 0.2 0
0.466667 0.233333 0
0.466667 0.266667 0
0.466667 0.3 0
0.466667 0.333333 0
0.466667 0.366667 0
0.466667 0.4 0
0.466667 0.433333 0
0.466667 0.466667 0
0.466667 0.5 0
0.466667 0.533333 0
0.466667 0.566667 0
0.466667 0.6 0
0.466667 0.633333 0
0.466667 0.666667 0
0.466667 0.7 0
0.466667 0.733333 0
0.466667 0.766667 0
0.466667 0.8 0
0.466667 0.833333 0
0.466667 0.866667 0
0.466667 0.9 0
0.466667 0.933333 0
0.466667 0.966667 0
0.5 0.0333333 0
0.5 0.0666667 0
0.5 0.1 0
0.5 0.133333 0
0.5 0.166667 0
0.5 0.2 0
0.5 0.233333 0
0.5 0.266667 0
0.5 0.3 0
0.5 0.333333 0
0.5 0.366667 0
0.5 0.4 0
0.5 0.433333 0
0.5 0.466667 0
0.5 0.5 0
0.5 0.533333 0
0.5 0.566667 0
0.5 0.6 0
0.5 0.633333 0
0.5 0.666667 0
0.5 0.7 0
0.5 0.733333 0
0.5 0.766667 0
0.5 0.8 0
0.5 0.833333 0
0.5 0.866667 0
0.5 0.9 0
0.5 0.933333 0
0.5 0.966667 0
0.533333 0.0333333 0
0.533333 0.0666667 0
0.533333 0.1 0
0.533333 0.133333 0
0.533333 0.166667 0
0.533333 0.2 0
0.533333 0.233333 0
0.533333 0.266667 0
0.533333 0.3 0
0.533333 0.333333 0
0.533333 0.366667 0
0.533333 0.4 0
0.533333 0.433333 0
0.533333 0.466667 0
0.533333 0.5 0
0.533333 0.533333 0
0.533333 0.566667 0
0.533333 0.6 0
0.533333 0.633333 0
0.533333 0.666667 0
0.533333 0.7 0
0.533333 0.733333 0
0.533333 0.766667 0
0.533333 0.8 0
0.533333 0.833333 0
0.533333 0.866667 0
0.533333 0.9 0
0.533333 0.933333 0
0.533333 0.966667 0
0.566667 0.0333333 0
0.566667 0.0666667 0
0.566667 0.1 0
0.566667 0.133333 0
0.566667 0.166667 0
0.566667 0.2 0
0.566667 0.233333 0
0.566667 0.266667 0
0.566667 0.3 0
0.566667 0.333333 0
0.566667 0.366667 0
0.566667 0.4 0
0.566667 0.433333 0
0.566667 0.466667 0
0.566667 0.5 0
0.566667 0.533333 0
0.566667 0.566667 0
0.566667 0.6 0
0.566667 0.633333 0
0.566667 0.666667 0
0.566667 0.7 0
0.566667 0.733333 0
0.566667 0.766667 0
0.566667 0.8 0
0.566667 0.833333 0
0.566667 0.866667 0
0.566667 0.9 0
0.566667 0.933333 0
0.566667 0.966667 0
0.6 0.0333333 0
0.6 0.0666667 0
0.6 0.1 0
0.6 0.133333 0
[...]
CELL_DATA 900
VECTORS velocity double
0.000132073 -0.000131511 0.0
6.52908e-05 -0.000246541 0.0
-8.52493e-05 -1.90832e-06 0.0
-0.000241613 0.000675298 0.0
-0.00038669 0.00178228 0.0
-0.000517236 0.00328979 0.0
-0.000633493 0.00516252 0.0
-0.000735939 0.00736351 0.0
-0.000824281 0.00985393 0.0
-0.000897503 0.0125918 0.0
-0.000954252 0.0155315 0.0
-0.000993306 0.0186235 0.0
-0.00101412 0.0218157 0.0
-0.00101745 0.0250564 0.0
-0.00100608 0.028298 0.0
-0.000985665 0.0315039 0.0
-0.000965996 0.0346565 0.0
-0.00096287 0.0377692 0.0
-0.00100152 0.0409035 0.0
-0.00112309 0.044193 0.0
-0.00139722 0.0478839 0.0
-0.00194607 0.0524001 0.0
-0.00298861 0.0584558 0.0
-0.00491538 0.0672448 0.0
-0.00838512 0.0807207 0.0
-0.0143009 0.10192 0.0
-0.0229674 0.135459 0.0
-0.0297369 0.187053 0.0
-0.00225781 0.239162 0.0
0.255422 0.145844 0.0
0.000240665 -5.96523e-05 0.0
-0.000218775 0.000219636 0.0
-0.00096809 0.00135691 0.0
-0.00176733 0.00343106 0.0
-0.00254064 0.0064526 0.0
-0.0032598 0.0103858 0.0
-0.00391401 0.0151664 0.0
-0.0044976 0.020716 0.0
-0.00500488 0.0269464 0.0
-0.00542912 0.0337604 0.0
-0.00576343 0.0410522 0.0
-0.00600237 0.0487087 0.0
-0.00614426 0.0566122 0.0
-0.00619393 0.0646463 0.0
-0.00616604 0.0727045 0.0
-0.00608896 0.0807024 0.0
-0.00600971 0.0885943 0.0
-0.0060009 0.0963943 0.0
-0.00617117 0.104204 0.0
-0.0066822 0.112244 0.0
-0.00777645 0.120902 0.0
-0.00982052 0.13077 0.0
-0.0133651 0.14269 0.0
-0.0192034 0.15773 0.0
-0.0283346 0.17698 0.0
-0.0414649 0.200861 0.0
-0.0568026 0.227266 0.0
-0.062601 0.246746 0.0
-0.00855778 0.230843 0.0
0.327989 0.119992 0.0
-6.404e-06 8.40037e-05 0.0
-0.00134431 0.00091131 0.0
-0.0031647 0.00302972 0.0
-0.00509946 0.00640848 0.0
-0.00699667 0.011038 0.0
-0.00878332 0.0168794 0.0
-0.0104227 0.0238544 0.0
-0.0118925 0.0318628 0.0
-0.0131745 0.0407896 0.0
-0.0142506 0.0505065 0.0
-0.0151041 0.0608732 0.0
-0.0157224 0.0717389 0.0
-0.0161014 0.0829457 0.0
-0.0162517 0.0943347 0.0
-0.0162053 0.105755 0.0
-0.0160235 0.117076 0.0
-0.0158062 0.128205 0.0
-0.015703 0.139106 0.0
-0.0159275 0.149818 0.0
-0.0167751 0.16048 0.0
-0.0186441 0.171337 0.0
-0.0220516 0.182729 0.0
-0.0276182 0.195018 0.0
-0.0359413 0.208388 0.0
-0.0471543 0.222385 0.0
-0.0596086 0.235006 0.0
-0.0661286 0.24073 0.0
-0.0437205 0.226157 0.0
0.0754899 0.169533 0.0
0.467266 0.0777191 0.0
-0.000631929 0.0002126 0.0
-0.00327268 0.00154621 0.0
-0.00646047 0.00455144 0.0
-0.0097809 0.009038 0.0
-0.0130321 0.0149464 0.0
-0.0161029 0.0222246 0.0
-0.0189301 0.030783 0.0
-0.0214717 0.0405106 0.0
-0.0236934 0.0512809 0.0
-0.0255631 0.0629522 0.0
-0.0270511 0.075368 0.0
-0.0281342 0.0883578 0.0
-0.0288021 0.101739 0.0
-0.0290663 0.115323 0.0
-0.0289701 0.128919 0.0
-0.0285993 0.142347 0.0
-0.0280943 0.155451 0.0
-0.0276614 0.168109 0.0
-0.0275844 0.180244 0.0
-0.0282317 0.19183 0.0
-0.0300527 0.202873 0.0
-0.0335428 0.213359 0.0
-0.0391268 0.223136 0.0
-0.0468462 0.231669 0.0
-0.0555878 0.237596 0.0
-0.0612434 0.238028 0.0
-0.0523404 0.227289 0.0
0.000431591 0.194066 0.0
0.164031 0.127721 0.0
0.573258 0.0511849 0.0
-0.00156985 0.000308048 0.0
-0.00587361 0.002041 0.0
-0.0106447 0.00575155 0.0
-0.0154935 0.0110916 0.0
-0.020205 0.0179398 0.0
-0.0246493 0.0262228 0.0
-0.028745 0.0358403 0.0
-0.0324337 0.0466769 0.0
-0.0356653 0.0586048 0.0
-0.038392 0.071481 0.0
-0.0405681 0.0851453 0.0
-0.042155 0.0994196 0.0
-0.0431294 0.114107 0.0
-0.0434945 0.128995 0.0
-0.043292 0.143859 0.0
-0.0426161 0.158467 0.0
-0.0416249 0.172594 0.0
-0.0405506 0.186022 0.0
-0.0397032 0.198546 0.0
-0.0394629 0.209969 0.0
-0.0402469 0.220068 0.0
-0.0424237 0.228537 0.0
-0.0461115 0.234862 0.0
-0.0507329 0.238108 0.0
-0.0540498 0.236582 0.0
-0.0500994 0.227369 0.0
-0.0248591 0.205651 0.0
0.0527597 0.163554 0.0
0.241098 0.0981129 0.0
0.644722 0.0344784 0.0
-0.00273098 0.000370663 0.0
-0.00897533 0.0023805 0.0
-0.0154875 0.0065839 0.0
-0.021948 0.0125033 0.0
-0.0281623 0.0199591 0.0
-0.0340036 0.0288547 0.0
-0.039385 0.039081 0.0
-0.0442386 0.0505233 0.0
-0.0485014 0.0630597 0.0
-0.0521089 0.0765544 0.0
-0.0549963 0.0908528 0.0
-0.0571036 0.105777 0.0
-0.0583859 0.121123 0.0
-0.0588262 0.136661 0.0
-0.0584505 0.152135 0.0
-0.0573425 0.167266 0.0
-0.0556555 0.18176 0.0
-0.0536197 0.19531 0.0
-0.0515379 0.207596 0.0
-0.0497629 0.218274 0.0
-0.0486377 0.226949 0.0
-0.0483688 0.233116 0.0
-0.0487628 0.236058 0.0
-0.0486951 0.234684 0.0
-0.0450417 0.227288 0.0
-0.0305619 0.211269 0.0
0.010208 0.18272 0.0
0.10587 0.137892 0.0
0.30817 0.0765105 0.0
0.69652 0.0235939 0.0
-0.00403167 0.000406227 0.0
-0.0123976 0.00257728 0.0
-0.0207433 0.00706236 0.0
-0.0288459 0.0132925 0.0
-0.0365569 0.0210419 0.0
-0.0437728 0.0301958 0.0
-0.0504157 0.0406405 0.0
-0.0564163 0.0522674 0.0
-0.0617021 0.0649669 0.0
-0.0661923 0.078617 0.0
-0.0697994 0.0930753 0.0
-0.0724356 0.108171 0.0
-0.0740247 0.1237 0.0
-0.0745174 0.139418 0.0
-0.0739086 0.155045 0.0
-0.0722538 0.17026 0.0
-0.069682 0.18471 0.0
-0.0664001 0.198009 0.0
-0.0626825 0.209742 0.0
-0.0588352 0.219455 0.0
-0.0551156 0.226632 0.0
-0.051574 0.230655 0.0
-0.0477477 0.230721 0.0
-0.0420751 0.22573 0.0
-0.030785 0.214114 0.0
-0.0058572 0.193633 0.0
0.048046 0.161822 0.0
0.157193 0.117159 0.0
0.366749 0.0608549 0.0
0.736122 0.0165191 0.0
-0.00540114 0.000420859 0.0
-0.0159732 0.00265122 0.0
-0.0261786 0.00722204 0.0
-0.0359045 0.0135109 0.0
-0.0450677 0.0212634 0.0
-0.0536049 0.0303544 0.0
-0.0614599 0.0406733 0.0
-0.0685702 0.0521238 0.0
-0.0748579 0.0646145 0.0
-0.0802259 0.0780433 0.0
-0.0845606 0.092286 0.0
-0.0877397 0.107185 0.0
-0.089646 0.122541 0.0
-0.0901855 0.138105 0.0
-0.0893071 0.153576 0.0
-0.0870225 0.1686 0.0
-0.0834198 0.182773 0.0
-0.0786679 0.195646 0.0
-0.073001 0.206727 0.0
-0.0666737 0.215483 0.0
-0.0598647 0.221321 0.0
-0.0524948 0.223564 0.0
-0.0438909 0.221398 0.0
-0.032165 0.21379 0.0
-0.0130968 0.199342 0.0
0.0217184 0.176235 0.0
0.0863058 0.143532 0.0
0.205443 0.100486 0.0
0.417833 0.049407 0.0
0.767172 0.0119066 0.0
-0.00678051 0.000418985 0.0
-0.0195531 0.00261955 0.0
-0.0315791 0.00709777 0.0
-0.0428636 0.013213 0.0
-0.0534021 0.0207001 0.0
-0.0631847 0.0294351 0.0
-0.0721873 0.0393185 0.0
-0.0803613 0.0502737 0.0
-0.0876269 0.0622332 0.0
-0.0938709 0.0751207 0.0
-0.09895 0.088836 0.0
-0.102701 0.103241 0.0
-0.104957 0.118148 0.0
-0.105566 0.133309 0.0
-0.104418 0.148412 0.0
-0.101466 0.163078 0.0
-0.0967433 0.176863 0.0
-0.0903702 0.189266 0.0
-0.0825355 0.199737 0.0
-0.0734458 0.207681 0.0
-0.0632172 0.212458 0.0
-0.0516754 0.213367 0.0
-0.0379937 0.209617 0.0
-0.0200471 0.200273 0.0
0.00669155 0.184055 0.0
0.050031 0.160049 0.0
0.123633 0.127665 0.0
0.250148 0.0869343 0.0
0.462475 0.040837 0.0
0.792063 0.00884312 0.0
-0.00811917 0.000403049 0.0
-0.0230034 0.00249378 0.0
-0.0367486 0.00671599 0.0
-0.0494833 0.0124427 0.0
-0.0612909 0.0194161 0.0
-0.0722244 0.0275244 0.0
-0.0822996 0.0366887 0.0
-0.0914875 0.0468587 0.0
-0.099709 0.0579968 0.0
-0.106835 0.0700578 0.0
-0.112689 0.0829712 0.0
-0.117061 0.0966248 0.0
-0.119726 0.11085 0.0
-0.120463 0.125409 0.0
-0.119091 0.139987 0.0
-0.115489 0.154191 0.0
-0.109624 0.167548 0.0
-0.101558 0.179516 0.0
-0.0914308 0.189497 0.0
-0.0794095 0.196852 0.0
-0.0655673 0.200904 0.0
-0.0496722 0.200949 0.0
-0.030805 0.196243 0.0
-0.00670219 0.185937 0.0
0.0271491 0.169023 0.0
0.0781454 0.14507 0.0
0.15933 0.113763 0.0
0.291244 0.0756969 0.0
0.501638 0.0342267 0.0
0.812441 0.00674831 0.0
-0.00937106 0.00037389 0.0
-0.0262006 0.00228011 0.0
-0.0415054 0.00609415 0.0
-0.0555408 0.0112323 0.0
-0.0684842 0.0174611 0.0
-0.0804575 0.0246915 0.0
-0.0915216 0.0328734 0.0
-0.101671 0.0419892 0.0
-0.110829 0.0520364 0.0
-0.11885 0.0630055 0.0
-0.125524 0.0748611 0.0
-0.130589 0.0875233 0.0
-0.133752 0.100851 0.0
-0.134717 0.114625 0.0
-0.133216 0.128543 0.0
-0.129043 0.142205 0.0
-0.122085 0.155123 0.0
-0.112336 0.166726 0.0
-0.0998854 0.176378 0.0
-0.084865 0.183399 0.0
-0.0673249 0.187084 0.0
-0.0470097 0.186725 0.0
-0.0229604 0.181631 0.0
0.00717161 0.170968 0.0
0.0475041 0.154256 0.0
0.105357 0.131041 0.0
0.192956 0.101341 0.0
0.328788 0.0661312 0.0
0.536079 0.0289502 0.0
0.829387 0.0052602 0.0
-0.0104919 0.000331324 0.0
-0.0290286 0.00198128 0.0
-0.0456794 0.00524389 0.0
-0.0608286 0.00960713 0.0
-0.0747495 0.0148771 0.0
-0.0876357 0.0209968 0.0
-0.0995962 0.0279516 0.0
-0.110651 0.0357615 0.0
-0.120727 0.0444626 0.0
-0.129663 0.054085 0.0
-0.137213 0.0646328 0.0
-0.14306 0.0760645 0.0
-0.146839 0.0882746 0.0
-0.14817 0.101076 0.0
-0.146687 0.114186 0.0
-0.142087 0.12722 0.0
-0.134163 0.139685 0.0
-0.12283 0.150995 0.0
-0.108118 0.160484 0.0
-0.0901284 0.167437 0.0
-0.0689038 0.171119 0.0
-0.0441989 0.170815 0.0
-0.0150824 0.16588 0.0
0.0206993 0.155571 0.0
0.0670952 0.139607 0.0
0.131136 0.117651 0.0
0.224212 0.0899472 0.0
0.362856 0.057727 0.0
0.566359 0.0245681 0.0
0.843603 0.00415007 0.0
-0.0114379 0.000274736 0.0
-0.0313765 0.00159893 0.0
-0.0491117 0.00417584 0.0
-0.0651542 0.0075925 0.0
-0.0798721 0.0117081 0.0
-0.0935298 0.0165044 0.0
-0.106284 0.0220071 0.0
-0.11818 0.0282763 0.0
-0.129153 0.0353885 0.0
-0.139023 0.0434156 0.0
-0.147509 0.0524041 0.0
-0.154239 0.0623568 0.0
-0.158775 0.073212 0.0
-0.160644 0.0848253 0.0
-0.159377 0.0969521 0.0
-0.15456 0.109235 0.0
-0.145879 0.1212 0.0
-0.133152 0.132259 0.0
-0.116342 0.141729 0.0
-0.0955124 0.148863 0.0
-0.0707123 0.152893 0.0
-0.0417354 0.153086 0.0
-0.00772527 0.148821 0.0
0.0334039 0.139421 0.0
0.0854365 0.124723 0.0
0.155072 0.104499 0.0
0.252857 0.079147 0.0
0.39349 0.0500602 0.0
0.592862 0.0207587 0.0
0.855538 0.00326982 0.0
-0.0121656 0.000203579 0.0
-0.03314 0.00113589 0.0
-0.0516562 0.0029046 0.0
-0.0683436 0.00522154 0.0
-0.0836587 0.00800991 0.0
-0.0979318 0.0112948 0.0
-0.111365 0.0151439 0.0
-0.12403 0.0196573 0.0
-0.135866 0.0249519 0.0
-0.14668 0.0311408 0.0
-0.156158 0.0383148 0.0
-0.163874 0.0465244 0.0
-0.169318 0.05576 0.0
-0.171924 0.0659316 0.0
-0.171114 0.0768488 0.0
-0.166354 0.0882034 0.0
-0.157206 0.0995588 0.0
-0.143377 0.11035 0.0
-0.124737 0.119894 0.0
-0.101304 0.127417 0.0
-0.0731337 0.132114 0.0
-0.0400805 0.133222 0.0
-0.00140218 0.130097 0.0
0.0447612 0.12213 0.0
0.102039 0.109197 0.0
0.176761 0.0911646 0.0
0.278635 0.0685284 0.0
0.42066 0.04277 0.0
0.615817 0.0172767 0.0
0.865462 0.00252073 0.0
-0.0126326 0.000117814 0.0
-0.0342232 0.000598311 0.0
-0.0531831 0.00145331 0.0
-0.0702448 0.00254196 0.0
-0.0859409 0.00385945 0.0
-0.100659 0.00547547 0.0
-0.114643 0.00749876 0.0
-0.127986 0.0100668 0.0
-0.140635 0.0133335 0.0
-0.152386 0.0174507 0.0
-0.162896 0.0225525 0.0
-0.171691 0.0287398 0.0
-0.178193 0.0360609 0.0
-0.181746 0.0444909 0.0
-0.181665 0.0539111 0.0
-0.177288 0.0640837 0.0
-0.168045 0.0746367 0.0
-0.153507 0.0850573 0.0
-0.133426 0.0946876 0.0
-0.107743 0.102744 0.0
-0.0765167 0.10838 0.0
-0.039664 0.110788 0.0
0.00339615 0.109252 0.0
0.0542651 0.103246 0.0
0.116419 0.0925814 0.0
0.195783 0.0772151 0.0
0.301245 0.057697 0.0
0.444245 0.0355374 0.0
0.635306 0.0139263 0.0
0.873512 0.00183414 0.0
-0.0127998 1.87526e-05 0.0
-0.0345447 -1.64271e-06 0.0
-0.053587 -0.000141762 0.0
-0.0707359 -0.000377833 0.0
-0.0865827 -0.000638372 0.0
-0.101561 -0.000810694 0.0
-0.115945 -0.000748658 0.0
-0.129854 -0.000282702 0.0
-0.143245 0.000770913 0.0
-0.155899 0.00259767 0.0
-0.167453 0.00537367 0.0
-0.177394 0.00925 0.0
-0.185086 0.0143362 0.0
-0.189792 0.0206804 0.0
-0.190726 0.0282504 0.0
-0.187097 0.0369011 0.0
-0.178197 0.0463531 0.0
-0.163442 0.0561838 0.0
-0.142437 0.0657998 0.0
-0.115004 0.0744347 0.0
-0.0811765 0.0812152 0.0
-0.0409173 0.0852778 0.0
0.0061638 0.0858477 0.0
0.0614101 0.082268 0.0
0.128081 0.0743856 0.0
0.211683 0.0621941 0.0
0.320317 0.0462599 0.0
0.464017 0.028066 0.0
0.651277 0.0105407 0.0
0.879716 0.00115886 0.0
-0.0126409 -9.00294e-05 0.0
-0.0340532 -0.000643711 0.0
-0.0528027 -0.00182798 0.0
-0.0697434 -0.00344356 0.0
-0.0855023 -0.00534297 0.0
-0.100543 -0.00737609 0.0
-0.115163 -0.00936676 0.0
-0.129497 -0.0111212 0.0
-0.143506 -0.0124341 0.0
-0.15698 -0.013092 0.0
-0.16954 -0.0128813 0.0
-0.180649 -0.011603 0.0
-0.189627 -0.00908628 0.0
-0.195677 -0.00520724 0.0
-0.197919 0.000102941 0.0
-0.195424 0.00680915 0.0
-0.18735 0.0147476 0.0
-0.172959 0.0236262 0.0
-0.151676 0.0329647 0.0
-0.123151 0.0420748 0.0
-0.0873527 0.0500825 0.0
-0.0442344 0.0560789 0.0
0.00644152 0.059221 0.0
0.0656942 0.0585801 0.0
0.136496 0.0540366 0.0
0.22394 0.0455952 0.0
0.335388 0.0338038 0.0
0.479626 0.0200622 0.0
0.663535 0.00696574 0.0
0.88401 0.000451852 0.0
-0.0121354 -0.000203244 0.0
-0.032713 -0.00129885 0.0
-0.0507915 -0.00353202 0.0
-0.067225 -0.00652721 0.0
-0.0826477 -0.0100678 0.0
-0.0975343 -0.0139767 0.0
-0.112197 -0.0180598 0.0
-0.126784 -0.0221096 0.0
-0.141268 -0.0259055 0.0
-0.155446 -0.0292123 0.0
-0.168936 -0.0317844 0.0
-0.181185 -0.0333768 0.0
-0.191483 -0.0337569 0.0
-0.198984 -0.0327229 0.0
-0.202742 -0.0301195 0.0
-0.201756 -0.0258569 0.0
-0.19505 -0.0199447 0.0
-0.18172 -0.0125321 0.0
-0.16097 -0.00394135 0.0
-0.132112 0.0053434 0.0
-0.0951518 0.0144722 0.0
-0.0499067 0.0225282 0.0
0.00380685 0.0286178 0.0
0.0666051 0.0314567 0.0
0.141084 0.0308606 0.0
0.231945 0.0268393 0.0
0.345874 0.0198722 0.0
0.490582 0.0112172 0.0
0.671748 0.00305277 0.0
0.886259 -0.000323031 0.0
-0.0112854 -0.000314166 0.0
-0.0305403 -0.00192933 0.0
-0.0475824 -0.00515939 0.0
-0.0632152 -0.00946581 0.0
-0.0780474 -0.0145764 0.0
-0.0925449 -0.0203018 0.0
-0.107024 -0.0264442 0.0
-0.121645 -0.0327967 0.0
-0.136399 -0.0391363 0.0
-0.151099 -0.045217 0.0
-0.165375 -0.0507696 0.0
-0.178676 -0.0555069 0.0
-0.190281 -0.0591342 0.0
-0.199315 -0.0613631 0.0
-0.204779 -0.0619291 0.0
-0.2056 -0.0606122 0.0
-0.200685 -0.0572724 0.0
-0.188985 -0.0518957 0.0
-0.169546 -0.0446259 0.0
-0.14158 -0.0357672 0.0
-0.104617 -0.0259197 0.0
-0.0583375 -0.0159769 0.0
-0.00248182 -0.00693746 0.0
0.0633825 6.60256e-07 0.0
0.14115 0.00403469 0.0
0.234997 0.00524176 0.0
0.351096 0.00393773 0.0
0.496316 0.00118803 0.0
0.675593 -0.00130863 0.0
0.886233 -0.0011604 0.0
-0.0101145 -0.000414046 0.0
-0.0276003 -0.00248911 0.0
-0.0432703 -0.00659817 0.0
-0.0578229 -0.0120686 0.0
-0.071808 -0.0185927 0.0
-0.0856624 -0.0259858 0.0
-0.099698 -0.0340638 0.0
-0.114086 -0.0426368 0.0
-0.128841 -0.0514957 0.0
-0.143806 -0.0603984 0.0
-0.15864 -0.0690649 0.0
-0.172817 -0.0771764 0.0
-0.185626 -0.0843815 0.0
-0.19619 -0.0903067 0.0
-0.203491 -0.0945725 0.0
-0.206402 -0.0968155 0.0
-0.203743 -0.0967231 0.0
-0.194327 -0.0940772 0.0
-0.17702 -0.0887963 0.0
-0.150819 -0.0809761 0.0
-0.114952 -0.0709937 0.0
-0.0688278 -0.0595739 0.0
-0.0120417 -0.047705 0.0
0.0556976 -0.0364475 0.0
0.135799 -0.0272136 0.0
0.232101 -0.0199312 0.0
0.350062 -0.0145563 0.0
0.495815 -0.0103325 0.0
0.673966 -0.00621894 0.0
0.88367 -0.00207136 0.0
-0.00867277 -0.000492818 0.0
-0.0240159 -0.00292751 0.0
-0.0380253 -0.00772757 0.0
-0.051243 -0.0141303 0.0
-0.0641288 -0.0218181 0.0
-0.0770722 -0.030629 0.0
-0.0903714 -0.0404105 0.0
-0.10421 -0.0510074 0.0
-0.118633 -0.0622425 0.0
-0.133524 -0.073897 0.0
-0.148592 -0.0856981 0.0
-0.163356 -0.097313 0.0
-0.177148 -0.108349 0.0
-0.189123 -0.118359 0.0
-0.198271 -0.126854 0.0
-0.20345 -0.133322 0.0
-0.203425 -0.137264 0.0
-0.196908 -0.138231 0.0
-0.182609 -0.135877 0.0
-0.159304 -0.130017 0.0
-0.125901 -0.120728 0.0
-0.0814642 -0.108455 0.0
-0.0252729 -0.094034 0.0
0.0431434 -0.0783332 0.0
0.124597 -0.0634485 0.0
0.222431 -0.04932 0.0
0.341635 -0.0361723 0.0
0.487968 -0.023732 0.0
0.666335 -0.0119042 0.0
0.878295 -0.00312647 0.0
-0.00703818 -0.000540388 0.0
-0.0199696 -0.00319509 0.0
-0.0320958 -0.00843075 0.0
-0.0437611 -0.015452 0.0
-0.0553104 -0.0239589 0.0
-0.0670711 -0.0338298 0.0
-0.0793205 -0.0449597 0.0
-0.0922533 -0.0572454 0.0
-0.10595 -0.0705607 0.0
-0.120348 -0.0847318 0.0
-0.135222 -0.0995177 0.0
-0.150163 -0.114598 0.0
-0.164578 -0.129565 0.0
-0.177684 -0.143922 0.0
-0.188526 -0.15709 0.0
-0.195989 -0.168424 0.0
-0.19883 -0.177236 0.0
-0.195705 -0.182836 0.0
-0.185213 -0.18458 0.0
-0.165932 -0.181939 0.0
-0.136474 -0.17459 0.0
-0.0955194 -0.162568 0.0
-0.0418723 -0.146364 0.0
0.0254646 -0.126456 0.0
0.106834 -0.105546 0.0
0.204979 -0.0838257 0.0
0.32465 -0.0617568 0.0
0.471599 -0.0396997 0.0
0.651659 -0.0187572 0.0
0.869577 -0.00442537 0.0
-0.00531447 -0.000548172 0.0
-0.0156973 -0.00325089 0.0
-0.025801 -0.00861138 0.0
-0.035748 -0.015867 0.0
-0.0457544 -0.0247631 0.0
-0.056075 -0.0352311 0.0
-0.0669599 -0.0472256 0.0
-0.0786118 -0.0607086 0.0
-0.0911484 -0.0756228 0.0
-0.104569 -0.0918624 0.0
-0.118727 -0.109248 0.0
-0.13331 -0.127506 0.0
-0.147827 -0.146252 0.0
-0.161599 -0.164982 0.0
-0.173769 -0.183067 0.0
-0.183301 -0.19976 0.0
-0.189005 -0.214214 0.0
-0.189548 -0.225507 0.0
-0.183476 -0.232693 0.0
-0.169239 -0.234853 0.0
-0.145211 -0.231193 0.0
-0.109703 -0.221192 0.0
-0.060971 -0.20476 0.0
0.00270884 -0.181956 0.0
0.0820224 -0.154784 0.0
0.178785 -0.124914 0.0
0.29775 -0.0927669 0.0
0.445128 -0.059436 0.0
0.628446 -0.0274685 0.0
0.856698 -0.00614811 0.0
-0.00362427 -0.000510731 0.0
-0.011474 -0.00307045 0.0
-0.0195137 -0.00821232 0.0
-0.0276441 -0.015273 0.0
-0.0359512 -0.0240656 0.0
-0.0446143 -0.0345802 0.0
-0.0538498 -0.0468352 0.0
-0.0638623 -0.0608641 0.0
-0.0748023 -0.0766905 0.0
-0.0867299 -0.0942971 0.0
-0.0995858 -0.113597 0.0
-0.113167 -0.134403 0.0
-0.12711 -0.156408 0.0
-0.140878 -0.179154 0.0
-0.153755 -0.202027 0.0
-0.164846 -0.224242 0.0
-0.173079 -0.244852 0.0
-0.177212 -0.262757 0.0
-0.175834 -0.276736 0.0
-0.167367 -0.285491 0.0
-0.150052 -0.287716 0.0
-0.121927 -0.282219 0.0
-0.0807731 -0.268121 0.0
-0.0241586 -0.244948 0.0
0.0501276 -0.21252 0.0
0.143106 -0.174555 0.0
0.2595 -0.131464 0.0
0.406557 -0.0849894 0.0
0.594526 -0.0393516 0.0
0.838293 -0.00868327 0.0
-0.00209814 -0.000427235 0.0
-0.0075902 -0.00265345 0.0
-0.0136309 -0.00723424 0.0
-0.0199277 -0.0136641 0.0
-0.0264522 -0.0218369 0.0
-0.0333117 -0.0317969 0.0
-0.0406842 -0.0436193 0.0
-0.0487654 -0.0574039 0.0
-0.0577255 -0.0732562 0.0
-0.0676749 -0.0912586 0.0
-0.0786354 -0.11144 0.0
-0.0905165 -0.133741 0.0
-0.103095 -0.157982 0.0
-0.116001 -0.18383 0.0
-0.128701 -0.210766 0.0
-0.140494 -0.238067 0.0
-0.150501 -0.264787 0.0
-0.157661 -0.289752 0.0
-0.160718 -0.311564 0.0
-0.158202 -0.328621 0.0
-0.148387 -0.339145 0.0
-0.12922 -0.341258 0.0
-0.0982038 -0.33314 0.0
-0.0522326 -0.313198 0.0
0.0124268 -0.279668 0.0
0.0979715 -0.235032 0.0
0.208665 -0.181125 0.0
0.35341 -0.119795 0.0
0.546604 -0.0569638 0.0
0.811855 -0.0129015 0.0
-0.000859875 -0.000302602 0.0
-0.00431902 -0.00202998 0.0
-0.00853092 -0.00575164 0.0
-0.0130694 -0.0111596 0.0
-0.0178229 -0.0182283 0.0
-0.0228385 -0.02704 0.0
-0.0282524 -0.0377066 0.0
-0.0342373 -0.0503752 0.0
-0.0409629 -0.0652173 0.0
-0.0485663 -0.0824073 0.0
-0.0571289 -0.102095 0.0
-0.0666561 -0.124372 0.0
-0.0770594 -0.149233 0.0
-0.0881388 -0.176536 0.0
-0.0995675 -0.205959 0.0
-0.110877 -0.23696 0.0
-0.121444 -0.268744 0.0
-0.130475 -0.300229 0.0
-0.136986 -0.330023 0.0
-0.139769 -0.356406 0.0
-0.137333 -0.377315 0.0
-0.1278 -0.390346 0.0
-0.10873 -0.392815 0.0
-0.0767913 -0.381872 0.0
-0.0274083 -0.354542 0.0
0.0451767 -0.307874 0.0
0.145034 -0.245712 0.0
0.283138 -0.169183 0.0
0.479872 -0.0851488 0.0
0.772624 -0.0207373 0.0
-9.3695e-06 -0.00014877 0.0
-0.00187717 -0.00126624 0.0
-0.00452191 -0.00392519 0.0
-0.00747093 -0.00802444 0.0
-0.0105745 -0.0136032 0.0
-0.0138389 -0.0207546 0.0
-0.0173581 -0.029598 0.0
-0.0212676 -0.0402944 0.0
-0.0257116 -0.0530471 0.0
-0.0308222 -0.0680896 0.0
-0.0367043 -0.0856661 0.0
-0.0434223 -0.106005 0.0
-0.0509875 -0.129282 0.0
-0.0593455 -0.155584 0.0
-0.068362 -0.184859 0.0
-0.0778074 -0.216866 0.0
-0.087342 -0.251127 0.0
-0.0964974 -0.28687 0.0
-0.104654 -0.322978 0.0
-0.111006 -0.357923 0.0
-0.114495 -0.389712 0.0
-0.113703 -0.415798 0.0
-0.106642 -0.433015 0.0
-0.0903664 -0.437519 0.0
-0.0603197 -0.424763 0.0
-0.00945978 -0.389245 0.0
0.0716942 -0.326902 0.0
0.194787 -0.239566 0.0
0.387787 -0.13219 0.0
0.710764 -0.0363189 0.0
0.000397772 1.24043e-05 0.0
-0.000379872 -0.000471891 0.0
-0.00178149 -0.00201066 0.0