# vtk DataFile Version 3.0
Malha 2D com triângulos e temperatura
ASCII
DATASET UNSTRUCTURED_GRID

POINTS 627 double
0.5 0 0
10 0 0
10 1 0
0 1 0
0 0.5 0
0.5 0.5 0
0.648437 0 0
0.796875 0 0
0.945312 0 0
1.09375 0 0
1.24219 0 0
1.39062 0 0
1.53906 0 0
1.6875 0 0
1.83594 0 0
1.98437 0 0
2.13281 0 0
2.28125 0 0
2.42969 0 0
2.57812 0 0
2.72656 0 0
2.875 0 0
3.02344 0 0
3.17187 0 0
3.32031 0 0
3.46875 0 0
3.61719 0 0
3.76562 0 0
3.91406 0 0
4.0625 0 0
4.21094 0 0
4.35937 0 0
4.50781 0 0
4.65625 0 0
4.80469 0 0
4.95312 0 0
5.10156 0 0
5.25 0 0
5.39844 0 0
5.54687 0 0
5.69531 0 0
5.84375 0 0
5.99219 0 0
6.14062 0 0
6.28906 0 0
6.4375 0 0
6.58594 0 0
6.73437 0 0
6.88281 0 0
7.03125 0 0
7.17969 0 0
7.32812 0 0
7.47656 0 0
7.625 0 0
7.77344 0 0
7.92187 0 0
8.07031 0 0
8.21875 0 0
8.36719 0 0
8.51562 0 0
8.66406 0 0
8.8125 0 0
8.96094 0 0
9.10937 0 0
9.25781 0 0
9.40625 0 0
9.55469 0 0
9.70312 0 0
9.85156 0 0
10 0.142857 0
10 0.285714 0
10 0.428571 0
10 0.571429 0
10 0.714286 0
10 0.857143 0
9.85075 1 0
9.70149 1 0
9.55224 1 0
9.40299 1 0
9.25373 1 0
9.10448 1 0
8.95522 1 0
8.80597 1 0
8.65672 1 0
8.50746 1 0
8.35821 1 0
8.20896 1 0
8.0597 1 0
7.91045 1 0
7.76119 1 0
7.61194 1 0
7.46269 1 0
7.31343 1 0
7.16418 1 0
7.01493 1 0
6.86567 1 0
6.71642 1 0
6.56716 1 0
6.41791 1 0
6.26866 1 0
6.1194 1 0
5.97015 1 0
5.8209 1 0
5.67164 1 0
5.52239 1 0
5.37313 1 0
5.22388 1 0
5.07463 1 0
4.92537 1 0
4.77612 1 0
4.62687 1 0
4.47761 1 0
4.32836 1 0
4.1791 1 0
4.02985 1 0
3.8806 1 0
3.73134 1 0
3.58209 1 0
3.43284 1 0
3.28358 1 0
3.13433 1 0
2.98507 1 0
2.83582 1 0
2.68657 1 0
2.53731 1 0
2.38806 1 0
2.23881 1 0
2.08955 1 0
1.9403 1 0
1.79104 1 0
1.64179 1 0
1.49254 1 0
1.34328 1 0
1.19403 1 0
1.04478 1 0
0.895522 1 0
0.746269 1 0
0.597015 1 0
0.447761 1 0
0.298507 1 0
0.149254 1 0
0 0.875 0
0 0.75 0
0 0.625 0
0.125 0.5 0
0.25 0.5 0
0.375 0.5 0
0.5 0.375 0
0.5 0.25 0
0.5 0.125 0
9.87628 0.5 0
9.3252 0.137839 0
8.88821 0.130313 0
8.45143 0.139287 0
8.01034 0.139467 0
7.55156 0.114709 0
7.09867 0.131588 0
6.63914 0.126938 0
6.20275 0.125836 0
5.76473 0.124784 0
5.32478 0.128522 0
4.87639 0.110285 0
4.44082 0.118367 0
3.99267 0.110023 0
3.5337 0.141155 0
3.09495 0.127932 0
2.63441 0.123598 0
2.20141 0.121056 0
1.76115 0.125347 0
1.32602 0.132448 0
0.984858 0.869514 0
0.610109 0.436579 0
1.58616 0.860636 0
2.01836 0.868049 0
2.46269 0.870742 0
2.89768 0.856444 0
3.37957 0.850976 0
3.81375 0.872695 0
4.24154 0.885204 0
4.71221 0.879621 0
5.15525 0.873493 0
5.59703 0.875348 0
6.04276 0.877788 0
6.47556 0.869651 0
6.91861 0.866008 0
7.39252 0.863864 0
7.83539 0.873555 0
8.28046 0.870625 0
8.72929 0.882823 0
9.1791 0.870742 0
1.26993 0.87535 0
9.47761 0.870742 0
1.02045 0.124275 0
0.609319 0.564345 0
0.7246 0.500472 0
9.62891 0.128551 0
0.3125 0.608253 0
0.722819 0.370188 0
0.841139 0.432407 0
0.723435 0.638699 0
0.519721 0.873513 0
9.77859 0.861407 0
0.216125 0.87115 0
0.608583 0.19057 0
9.88922 0.216466 0
0.843726 0.29515 0
0.96037 0.36077 0
0.963482 0.501423 0
1.08755 0.423611 0
1.08797 0.571465 0
1.21232 0.497657 0
0.117887 0.685919 0
0.498086 0.628286 0
1.20891 0.353473 0
1.33698 0.42372 0
1.33769 0.570678 0
1.46308 0.491719 0
1.46259 0.347348 0
1.59158 0.418833 0
1.59455 0.56572 0
1.72134 0.491207 0
1.72719 0.639517 0
1.85152 0.56383 0
1.84876 0.415525 0
1.97855 0.487875 0
1.97633 0.339364 0
2.10611 0.411733 0
2.10821 0.560387 0
2.23595 0.484181 0
2.23804 0.632973 0
2.36583 0.556705 0
2.36369 0.407933 0
2.49358 0.480428 0
2.49062 0.333096 0
2.6204 0.405792 0
2.62335 0.55321 0
2.75109 0.476952 0
2.75342 0.625571 0
2.88122 0.549194 0
2.87895 0.400373 0
3.00899 0.472781 0
3.00948 0.618636 0
3.13758 0.542791 0
3.13763 0.397885 0
3.26551 0.466735 0
3.26556 0.321858 0
3.39446 0.392458 0
3.39696 0.540625 0
3.52455 0.464735 0
3.52893 0.613533 0
3.6549 0.537195 0
3.65231 0.388409 0
3.7823 0.460788 0
3.13773 0.714719 0
3.77928 0.313198 0
3.90919 0.385717 0
3.91214 0.533388 0
4.03983 0.456972 0
4.04227 0.605634 0
4.16998 0.529122 0
4.16762 0.380317 0
4.29771 0.452591 0
4.30092 0.599933 0
4.42797 0.524643 0
4.43121 0.672001 0
4.55813 0.596879 0
4.55553 0.448322 0
4.68566 0.520597 0
4.68319 0.371848 0
4.81329 0.444112 0
4.81574 0.592932 0
4.94342 0.516385 0
4.9458 0.665268 0
5.07033 0.583437 0
5.07055 0.438953 0
5.19745 0.505825 0
5.19802 0.362088 0
5.32811 0.434243 0
5.3165 0.599487 0
5.4543 0.506576 0
5.45642 0.358883 0
5.5858 0.430878 0
5.58925 0.568647 0
5.71665 0.501328 0
5.71405 0.636984 0
5.84604 0.572576 0
5.8442 0.425792 0
5.97439 0.498297 0
5.97188 0.349754 0
6.10207 0.421956 0
6.10468 0.570771 0
6.23229 0.49414 0
6.2349 0.643007 0
6.36249 0.566292 0
6.35987 0.417473 0
6.49005 0.489574 0
6.48712 0.341269 0
6.61727 0.413405 0
6.62018 0.561759 0
6.74772 0.485036 0
6.75045 0.633817 0
6.87802 0.557023 0
6.87531 0.408214 0
7.00558 0.48023 0
7.00971 0.626526 0
7.13612 0.55184 0
7.14028 0.69812 0
7.26649 0.623741 0
7.26345 0.475376 0
7.39376 0.547365 0
7.39096 0.398629 0
7.52124 0.470624 0
7.52399 0.619474 0
7.65149 0.542623 0
7.64871 0.393824 0
7.77894 0.465774 0
7.77595 0.317323 0
7.90617 0.389281 0
7.90916 0.537777 0
8.0366 0.460921 0
8.03948 0.609706 0
8.16694 0.53279 0
8.16407 0.384003 0
8.2944 0.455874 0
8.29864 0.602218 0
8.42499 0.527347 0
8.42927 0.673676 0
8.55542 0.599103 0
8.55223 0.450746 0
8.68259 0.522587 0
8.67962 0.373877 0
8.80996 0.445721 0
8.81288 0.594542 0
8.94032 0.517577 0
8.94327 0.666442 0
9.06695 0.583218 0
9.06711 0.439583 0
9.19356 0.504959 0
9.1942 0.3623 0
9.32427 0.434071 0
9.32675 0.569154 0
9.45792 0.498112 0
9.44963 0.36208 0
9.58126 0.429609 0
9.58807 0.570007 0
7.6529 0.689174 0
5.06739 0.291169 0
7.26168 0.328253 0
5.83156 0.734154 0
5.58398 0.282324 0
9.06668 0.295021 0
0.96112 0.637198 0
3.6556 0.683277 0
2.62784 0.697907 0
8.28952 0.310714 0
1.07316 0.73116 0
1.58948 0.271685 0
1.85098 0.707931 0
7.00881 0.339043 0
6.87999 0.253808 0
4.29177 0.303438 0
3.90684 0.672109 0
4.03335 0.755362 0
8.55799 0.745174 0
4.16358 0.238402 0
4.54351 0.312603 0
4.66344 0.229329 0
6.62805 0.707319 0
6.76788 0.781099 0
7.38706 0.259818 0
3.52904 0.76259 0
8.53854 0.277602 0
8.67223 0.238155 0
2.36479 0.267645 0
6.36161 0.276114 0
6.38113 0.734183 0
6.25375 0.775419 0
8.15514 0.235205 0
7.91111 0.677806 0
8.05245 0.758312 0
6.49515 0.203384 0
3.39548 0.242242 0
2.37761 0.729427 0
2.24064 0.770744 0
4.55475 0.736063 0
4.44722 0.821643 0
6.11503 0.257189 0
5.97933 0.223529 0
2.75856 0.771358 0
1.72552 0.78383 0
2.49394 0.197379 0
3.25698 0.157289 0
4.80097 0.75348 0
4.93608 0.821326 0
7.52672 0.767551 0
9.70649 0.501261 0
9.69583 0.642024 0
9.69681 0.358379 0
9.5714 0.72344 0
2.11813 0.248921 0
1.97909 0.183589 0
9.08461 0.738703 0
8.95037 0.820123 0
7.66752 0.849914 0
9.19231 0.220039 0
2.62074 0.856256 0
7.25627 0.156893 0
1.46505 0.20699 0
8.28907 0.156017 0
0.369426 0.87423 0
0.310544 0.740563 0
5.18662 0.215404 0
3.64993 0.239686 0
3.77336 0.169361 0
8.43198 0.844618 0
5.46423 0.212966 0
7.26893 0.773269 0
1.85846 0.860737 0
1.12807 0.87378 0
0.667186 0.874914 0
0.597076 0.727125 0
0.828937 0.852648 0
9.04978 0.140208 0
7.14866 0.837429 0
1.16644 0.124409 0
1.08962 0.262193 0
0.857821 0.146177 0
3.65661 0.850323 0
7.63251 0.234981 0
7.77326 0.168343 0
9.62753 0.871125 0
9.43712 0.747606 0
9.33139 0.834394 0
9.22008 0.751838 0
1.42116 0.870213 0
1.48478 0.762094 0
9.56765 0.268076 0
1.34052 0.729941 0
9.31986 0.292668 0
9.48273 0.12859 0
7.51189 0.329293 0
5.32644 0.286691 0
4.04107 0.318092 0
8.42196 0.378898 0
7.1343 0.404971 0
4.42227 0.380437 0
6.22977 0.345336 0
3.52507 0.311448 0
8.93974 0.372683 0
4.94256 0.370609 0
6.74483 0.341052 0
8.02914 0.308475 0
8.81316 0.274407 0
4.80753 0.307382 0
5.83727 0.260085 0
5.71428 0.354386 0
1.8378 0.249596 0
2.74491 0.335584 0
2.87671 0.251555 0
3.01086 0.332254 0
2.24077 0.341297 0
3.05966 0.870765 0
3.21307 0.863006 0
3.28215 0.743281 0
5.29949 0.871243 0
5.23411 0.742158 0
5.3749 0.742309 0
5.44822 0.871748 0
5.5252 0.762916 0
5.89697 0.875702 0
5.7483 0.875696 0
1.71893 0.343462 0
5.04439 0.135707 0
6.95518 0.121859 0
4.28751 0.145352 0
5.60363 0.134791 0
8.68158 0.664322 0
5.97236 0.644492 0
2.49576 0.629188 0
8.17893 0.67134 0
6.89069 0.704514 0
4.17118 0.670427 0
2.88349 0.697986 0
2.10014 0.729492 0
3.78145 0.604736 0
4.67969 0.662031 0
6.49271 0.638368 0
7.3954 0.699211 0
7.77998 0.610443 0
1.9805 0.63641 0
8.80465 0.756802 0
6.1095 0.734983 0
1.33701 0.283132 0
9.88043 0.357237 0
9.88014 0.64258 0
5.08024 0.743753 0
1.2102 0.644263 0
0.103605 0.807634 0
0.439462 0.750743 0
3.95707 0.882883 0
6.80447 0.120261 0
1.6008 0.131146 0
7.89548 0.238987 0
8.13239 0.883223 0
0.609604 0.311282 0
2.7983 0.119239 0
6.61981 0.274168 0
2.94833 0.118451 0
0.703706 0.111429 0
6.63707 0.859072 0
0.842306 0.569423 0
0.837411 0.702623 0
6.364 0.131996 0
4.58426 0.109524 0
9.78076 0.137743 0
3.91923 0.229763 0
9.89125 0.780405 0
6.33184 0.880681 0
2.61598 0.2655 0
2.36156 0.127215 0
4.30314 0.762546 0
8.5942 0.1274 0
4.10234 0.885772 0
0.190293 0.593004 0
7.13631 0.264252 0
3.40389 0.687987 0
3.13618 0.258568 0
7.98467 0.885303 0
8.58682 0.879838 0
3.26523 0.609655 0
4.58026 0.868261 0
7.41143 0.121871 0
6.05312 0.11971 0
7.78537 0.749554 0
8.30837 0.738634 0
7.02541 0.771558 0
2.15406 0.878437 0
3.39472 0.10969 0
0.7258 0.759112 0
2.32273 0.878278 0
0.94955 0.234368 0
8.74773 0.12373 0
4.83015 0.890885 0
0.716111 0.245352 0
3.77838 0.742576 0
2.99761 0.75171 0
3.50746 0.892043 0
4.92986 0.235274 0
8.14453 0.10651 0
1.61834 0.715396 0
4.13327 0.11112 0
2.08316 0.110713 0
4.73047 0.104768 0
5.4784 0.643858 0
8.3981 0.252503 0
8.95151 0.242526 0
7.53228 0.896266 0
1.45967 0.625869 0
9.69385 0.235693 0
9.05476 0.885914 0
5.67168 0.768972 0
1.20266 0.768201 0
2.51257 0.754942 0
4.40935 0.251625 0
9.69404 0.76228 0
5.69764 0.230639 0
2.76085 0.898772 0
5.97063 0.773424 0
6.79104 0.900864 0
3.66796 0.110041 0
1.96169 0.760524 0
9.43238 0.239203 0
1.87967 0.111706 0
7.25754 0.894912 0
5.18147 0.0959265 0
1.22248 0.234816 0
9.18445 0.0961069 0
5.9005 0.116628 0
6.19403 0.904833 0
8.8491 0.89195 0
[...]
CELL_DATA 1102
VECTORS velocity double
0.488289 0.0587765 0.0
0.0901589 0.000923572 0.0
0.271474 -0.00123491 0.0
0.372822 -0.000367784 0.0
0.296804 -0.00044018 0.0
0.00872741 -0.0272543 0.0
0.790189 -0.172173 0.0
0.33076 0.000819745 0.0
0.382042 -0.0949691 0.0
0.310335 0.00838811 0.0
0.536731 -0.0485446 0.0
-0.0332691 0.00356026 0.0
0.328803 0.00759734 0.0
0.365791 -0.000612832 0.0
0.104548 -0.00137823 0.0
0.131875 0.00115288 0.0
0.299217 -0.000785971 0.0
0.812538 -0.14992 0.0
0.607333 -0.0468103 0.0
0.489886 -0.0629588 0.0
0.163073 -0.00432587 0.0
0.334522 0.00389006 0.0
0.307099 0.00459135 0.0
0.188251 -0.00139158 0.0
0.367646 0.00936207 0.0
0.564592 -0.0872799 0.0
0.135898 0.00026345 0.0
0.270223 -0.000170775 0.0
0.113242 -0.00186429 0.0
0.122547 -0.000762541 0.0
0.310455 0.00180485 0.0
0.358406 0.000531415 0.0
0.111588 -0.00255226 0.0
0.245354 -0.0036528 0.0
0.436592 -0.000973833 0.0
0.35954 0.00149289 0.0
0.327214 -0.154489 0.0
0.307432 0.00282245 0.0
0.159829 0.000604417 0.0
0.354458 0.0016265 0.0
0.289632 0.00125043 0.0
0.149588 -0.00214168 0.0
0.131483 0.000399859 0.0
0.14957 0.00115919 0.0
0.269744 -0.000373799 0.0
0.366899 -0.000195485 0.0
0.104777 -9.74996e-05 0.0
0.481706 -0.0405093 0.0
0.350684 0.00297307 0.0
0.153971 -0.000110535 0.0
0.345537 0.00500019 0.0
0.359301 0.000283675 0.0
0.19946 0.00152635 0.0
0.283106 0.00169352 0.0
0.329161 -0.00843037 0.0
0.200705 -0.00854522 0.0
0.297567 -0.00216197 0.0
0.300734 0.00342563 0.0
0.266471 0.000461864 0.0
0.310561 0.0103083 0.0
0.157865 -0.000367194 0.0
0.338911 0.00227415 0.0
0.44933 -0.00196775 0.0
0.461881 -0.0388225 0.0
0.375705 -0.000237019 0.0
0.286848 -0.00408293 0.0
0.904899 -0.0958177 0.0
0.53585 -0.0898914 0.0
0.174298 3.85581e-05 0.0
0.303117 0.00392015 0.0
0.18657 0.00544103 0.0
0.159936 0.0015054 0.0
0.369446 0.000611613 0.0
0.339102 0.000832958 0.0
0.294506 -0.00022487 0.0
0.152727 -0.0048066 0.0
0.334961 -0.137303 0.0
0.315363 0.00394207 0.0
0.291589 -0.000854316 0.0
0.154756 0.00151514 0.0
0.367071 0.000963518 0.0
0.178013 -0.000506763 0.0
0.242 0.00938337 0.0
0.18062 -0.00217413 0.0
0.18057 -0.00184067 0.0
0.113572 -0.00098734 0.0
0.277994 0.00568346 0.0
0.154213 -0.000133341 0.0
0.333065 0.00447458 0.0
0.291046 -0.0020979 0.0
0.294748 0.000447697 0.0
0.871249 -0.074544 0.0
0.15543 0.00606964 0.0
0.361465 -0.0126195 0.0
0.094066 0.00137459 0.0
0.328406 -0.00582201 0.0
0.693611 -0.123908 0.0
0.420982 0.00276513 0.0
0.524141 -0.0766756 0.0
0.275773 -0.0048317 0.0
0.140507 0.000336206 0.0
0.190513 -0.000842415 0.0
0.285819 -0.00290779 0.0
0.177226 0.000506688 0.0
0.183549 0.00918719 0.0
0.793948 -0.157311 0.0
0.300598 0.000160842 0.0
0.280777 -0.00383242 0.0
0.467602 0.00081274 0.0
0.333321 0.00301292 0.0
0.611966 -0.0616727 0.0
0.163816 0.000518703 0.0
0.310524 0.000990911 0.0
0.277904 0.0032494 0.0
0.195422 -0.114062 0.0
0.312506 -0.0310378 0.0
0.273268 0.0753172 0.0
0.341336 0.00222399 0.0
0.278384 0.00128188 0.0
0.258217 0.00187614 0.0
0.329379 0.00423959 0.0
0.147845 -0.000906698 0.0
0.364535 0.00321064 0.0
0.394394 0.0201433 0.0
0.0998428 0.000358109 0.0
0.715664 -0.127469 0.0
0.320779 0.00277761 0.0
0.0430276 -0.0616582 0.0
0.3129 -0.00211472 0.0
0.566267 -0.0723722 0.0
0.353607 0.000684066 0.0
0.261065 -0.0523108 0.0
0.272369 -0.00320681 0.0
0.353151 0.0015063 0.0
0.248992 -0.00122181 0.0
0.332433 -0.0348134 0.0
0.259941 0.00216067 0.0
0.496577 -0.0199229 0.0
0.416394 0.0246935 0.0
0.295464 0.00325462 0.0
0.257594 -0.00604973 0.0
0.328547 -0.00404901 0.0
0.848459 -0.0398987 0.0
0.333865 0.00143593 0.0
0.310222 0.0102999 0.0
0.388197 0.00285322 0.0
0.804283 -0.0692796 0.0
0.438314 0.0011766 0.0
0.264917 0.00593418 0.0
0.318768 0.00122596 0.0
0.252551 -0.0201684 0.0
0.881511 -0.0173822 0.0
0.22699 -0.0167489 0.0
0.529153 -0.0146574 0.0
0.342691 0.00610511 0.0
0.139259 -0.00210572 0.0
0.139237 -0.00698002 0.0
0.377602 -0.00373426 0.0
0.253637 -0.00608971 0.0
0.250339 0.00921655 0.0
0.446154 -0.0268095 0.0
0.353373 0.00395928 0.0
0.404539 -0.0286991 0.0
0.337498 0.00823554 0.0
0.264688 0.00175113 0.0
0.247453 0.00515821 0.0
0.0254132 -0.0239022 0.0
0.307451 -0.014732 0.0
0.329234 -0.0145001 0.0
0.343572 0.00237367 0.0
0.475999 -0.0479951 0.0
0.269384 -0.0229396 0.0
0.0997314 -0.0556547 0.0
0.303267 -0.000894016 0.0
-0.0242499 -0.0195742 0.0
0.184729 -0.020124 0.0
0.209604 -0.0133156 0.0
-0.011671 -0.0118189 0.0
0.35961 -0.00916843 0.0
0.388631 -0.000998226 0.0
0.275538 -0.0142443 0.0
0.141011 0.000356039 0.0
0.338012 -0.00574626 0.0
0.328592 -0.0184946 0.0
0.139445 -0.0105544 0.0
-0.0353032 -0.00716385 0.0
0.110435 -0.00671112 0.0
0.377629 -0.0205341 0.0
0.176697 -0.00565012 0.0
0.0921256 -0.00048313 0.0
0.145412 -0.000210508 0.0
0.384069 -0.000129687 0.0
0.405181 -6.32023e-06 0.0
0.018859 -0.012281 0.0
0.18528 -0.00528209 0.0
0.396235 -0.0317078 0.0
0.0814272 -0.0215758 0.0
0.379218 -0.0305712 0.0
0.413462 0.000663478 0.0
0.407868 -0.000688587 0.0
0.41413 -0.000579171 0.0
0.0840859 -0.000813369 0.0
-0.0260771 0.00376618 0.0
0.38898 -0.000296004 0.0
0.182626 -0.00446246 0.0
0.407175 -0.000226254 0.0
0.0829788 -0.0021024 0.0
0.234886 0.003361 0.0
0.412926 0.000324705 0.0
0.384004 -0.000104772 0.0
0.147709 0.00038665 0.0
0.143206 -0.000987516 0.0
0.388171 -0.000789884 0.0
0.0826567 0.00079236 0.0
0.408567 -0.000712088 0.0
0.338277 -0.00120774 0.0
0.403593 0.00176113 0.0
0.351263 -0.00472726 0.0
0.421611 -0.000575277 0.0
0.391996 -0.00306079 0.0
0.3957 0.0247464 0.0
0.458969 0.00283517 0.0
0.468572 -3.24275e-05 0.0
0.447799 0.00884346 0.0
0.436501 -0.000413213 0.0
0.412783 -0.000524349 0.0
0.476695 0.00273144 0.0
0.451797 -0.0187025 0.0
0.355304 -0.00136632 0.0
0.321279 -0.00255515 0.0
0.482093 0.0038737 0.0
0.305297 -0.00182651 0.0
0.356474 0.000100049 0.0
0.408624 -0.00324933 0.0
0.407618 0.0232122 0.0
0.48183 0.00344344 0.0
0.486568 -0.000325126 0.0
0.475572 0.0100188 0.0
0.468625 0.000847809 0.0
0.468658 -9.4637e-05 0.0
0.429671 -0.00186202 0.0
0.186123 -0.00171791 0.0
0.455968 0.00415732 0.0
0.385175 -0.00862221 0.0
0.46097 0.000318882 0.0
0.102239 -0.00291566 0.0
0.389264 -0.000936201 0.0
0.463337 -0.000929414 0.0
0.38687 0.0309553 0.0
0.355336 -0.00274187 0.0
0.164951 -0.00130516 0.0
0.412446 0.00130859 0.0
0.387352 -0.000791135 0.0
0.407009 -0.00100602 0.0
0.468002 -0.00182045 0.0
0.161106 -0.000365289 0.0
0.44657 0.00358073 0.0
0.412802 -0.00192324 0.0
0.296448 0.000122387 0.0
0.166556 0.00133377 0.0
0.358539 -0.00417095 0.0
0.308742 -4.48707e-05 0.0
0.300991 -0.00989912 0.0
0.349471 -0.00195524 0.0
0.388252 0.012867 0.0
0.421841 0.00032818 0.0
0.430978 -0.0012278 0.0
0.376945 0.000138644 0.0
0.385814 -0.00136475 0.0
0.304453 -0.00480437 0.0
0.291744 -0.000821471 0.0
0.408761 -0.00165489 0.0
0.467065 -0.00201608 0.0
0.478768 0.00333262 0.0
0.41009 0.00736983 0.0
0.419677 0.000993504 0.0
0.469231 -0.00222908 0.0
0.464438 -0.000283534 0.0
0.432066 -0.000704593 0.0
0.452277 0.00428828 0.0
0.442478 0.0151549 0.0
0.349268 -0.0100832 0.0
0.378756 0.0273796 0.0
0.384364 0.000612781 0.0
0.357846 -0.00324599 0.0
0.388071 -0.0019757 0.0
0.431894 -0.000826695 0.0
0.381241 0.0010137 0.0
0.406844 -0.00144264 0.0
0.486714 -0.00127682 0.0
0.43447 0.0424328 0.0
0.389227 -0.00527077 0.0
0.354053 0.000158237 0.0
0.387549 -0.00661434 0.0
0.444755 0.0388278 0.0
0.485242 -0.00184947 0.0
0.457485 0.00403653 0.0
0.410191 0.00320107 0.0
0.302771 -0.000305326 0.0
0.48451 0.00408131 0.0
0.339621 -0.00196003 0.0
0.446408 0.0064291 0.0
0.407565 -0.00206722 0.0
0.385608 -0.0111036 0.0
0.390464 -0.00391559 0.0
0.403655 -0.00342899 0.0
0.401861 0.0335675 0.0
0.468321 0.020901 0.0
0.458189 0.00182262 0.0
0.479225 0.0049975 0.0
0.435531 0.00173189 0.0
0.484334 -5.58786e-05 0.0
0.485475 -0.00236453 0.0
0.466932 -0.000401508 0.0
0.466817 -0.00101087 0.0
0.472286 0.00256474 0.0
0.475348 0.00289203 0.0
0.38988 -0.000609625 0.0
0.177727 -0.000726883 0.0
0.17625 0.00279517 0.0
0.162266 -0.000839565 0.0
0.16709 -0.00342381 0.0
0.163723 0.0026323 0.0
0.470065 -0.000507615 0.0
0.470736 -0.000190646 0.0
0.488096 -0.000816252 0.0
0.405774 -0.01226 0.0
0.483037 0.00327013 0.0
0.476423 0.0123206 0.0
0.405906 0.0134184 0.0
0.462165 0.00117127 0.0
0.484056 0.00183424 0.0
0.409985 -0.00324861 0.0
0.386121 -0.0105573 0.0
0.48041 0.00461682 0.0
0.41094 -0.00220751 0.0
0.411792 -0.00256377 0.0
0.407868 -0.00540191 0.0
0.409979 0.00750299 0.0
0.438185 0.0582905 0.0
0.48634 0.0149691 0.0
0.490331 0.00415726 0.0
0.488607 -0.000957696 0.0
0.487688 -0.00111451 0.0
0.486604 -0.00109003 0.0
0.486618 -0.000266 0.0
0.487197 0.00290437 0.0
0.404263 -0.00861598 0.0
0.487782 0.00346437 0.0
0.478051 0.00399169 0.0
0.110106 0.00150576 0.0
0.0950034 0.000954278 0.0
0.0873375 0.000986486 0.0
0.0756761 0.000376102 0.0
0.104968 -0.00436353 0.0
0.0875492 -0.00342911 0.0
0.088722 6.43926e-05 0.0
0.101064 -0.00217733 0.0
0.114801 -0.000206729 0.0
0.0943219 -0.000593188 0.0
0.0368287 -0.0128214 0.0
0.123631 -0.00163103 0.0
0.0969345 0.00197221 0.0
0.110164 -0.00313505 0.0
0.11833 0.00275113 0.0
0.0994924 -0.00130288 0.0
0.0841636 0.00188155 0.0
0.101865 -0.00139516 0.0
0.0922144 -0.000410045 0.0
0.0966074 -0.000620709 0.0
0.405527 -0.00108743 0.0
0.488985 0.00473222 0.0
0.447151 0.00267715 0.0
0.458046 0.00408883 0.0
0.0838249 0.000242633 0.0
0.430361 -0.000660524 0.0
0.433294 -0.000203172 0.0
0.469311 -0.00123429 0.0
0.416841 0.00170919 0.0
0.451868 0.00364402 0.0
0.445415 0.0118348 0.0
0.384651 0.0063907 0.0
0.349704 -0.00925686 0.0
0.387479 -0.00231866 0.0
0.101157 0.000370468 0.0
0.0964738 -0.000644697 0.0
0.0988068 -0.00108142 0.0
0.0917299 0.000793122 0.0
0.409069 -0.00239058 0.0
0.387483 -0.00962497 0.0
0.40531 -0.00734585 0.0
0.465617 0.0261769 0.0
0.480604 0.00554357 0.0
0.486319 0.000528531 0.0
0.486976 -0.00211115 0.0
0.468469 -0.0001666 0.0
0.473457 0.00241304 0.0
0.407339 -0.0119975 0.0
0.412962 -0.00216231 0.0
0.409656 -0.00479537 0.0
0.485639 0.00203756 0.0
0.411357 0.000301584 0.0
0.425935 0.0485869 0.0
0.487179 0.0203783 0.0
0.491644 0.00493854 0.0
0.490735 -0.000786496 0.0
0.489322 -0.00187614 0.0
0.488134 -0.000876187 0.0
0.488249 -0.000616514 0.0
0.488737 0.0028559 0.0
0.489283 0.00327051 0.0
0.481366 0.00432744 0.0
0.453254 -0.0128249 0.0
0.490362 0.00498028 0.0
0.523999 -0.0853947 0.0
0.452072 0.00142455 0.0
0.411969 -0.00173863 0.0
0.408301 -0.00823834 0.0
0.41352 -0.011889 0.0
0.473379 0.0432723 0.0
0.489902 0.00906113 0.0
0.413272 -0.00373576 0.0
0.492849 0.000708067 0.0
0.489711 -0.00182542 0.0
0.416047 0.0334861 0.0
0.4925 0.00333998 0.0
0.48809 0.000179667 0.0
0.490175 -0.000294834 0.0
0.488763 0.00111731 0.0
0.400662 -0.00187239 0.0
0.401536 -0.00209385 0.0
0.413035 -0.00653934 0.0
0.402046 0.0148197 0.0
0.46033 0.071731 0.0
0.484847 0.0138053 0.0
0.485366 0.00346651 0.0
0.48512 0.00450538 0.0
0.476516 -0.000887363 0.0
0.47433 -0.00035461 0.0
0.490153 -0.000805895 0.0
0.488902 -0.000151023 0.0
0.489406 0.00424707 0.0
0.48437 0.00366402 0.0
0.481959 -0.00827605 0.0
0.484154 -0.00401388 0.0
0.116065 0.000298987 0.0
0.110203 0.000738559 0.0
0.107217 0.000542978 0.0
0.0695475 0.000831185 0.0
0.0923535 0.00107109 0.0
0.0961297 0.00159558 0.0
0.0650677 -0.000889812 0.0
0.0930286 0.000673308 0.0
0.116422 0.000643174 0.0
0.0863712 0.00152949 0.0
0.0908889 0.00183713 0.0
0.0970623 -7.16772e-05 0.0
0.103674 -0.00277102 0.0
0.104535 0.00243448 0.0
0.0919871 0.00130499 0.0
0.0844754 -0.000981859 0.0
0.0914832 -0.000125965 0.0
0.0570543 -0.00990738 0.0
0.101047 -0.00280968 0.0
0.083394 0.0017335 0.0
0.073249 -0.00073638 0.0
0.0816373 -0.00240664 0.0
0.102258 0.00116472 0.0
0.410879 -0.00181233 0.0
0.406805 -0.00958679 0.0
0.41164 -0.0108083 0.0
0.478204 0.0354047 0.0
0.488664 0.00721538 0.0
0.490847 -0.00029763 0.0
0.488037 -0.00193984 0.0
0.486078 3.18111e-05 0.0
0.412054 -0.00448928 0.0
0.422762 0.0445771 0.0
0.487094 0.00249698 0.0
0.491293 0.00267863 0.0
0.48874 -0.000381498 0.0
0.483469 0.00315688 0.0
0.481385 0.00505127 0.0
0.487835 0.0047692 0.0
0.398726 -0.00131797 0.0
0.411678 -0.00741945 0.0
0.400598 -0.00287915 0.0
0.403457 -0.0122265 0.0
0.476162 0.060107 0.0
0.404309 0.0268264 0.0
0.482457 0.0104926 0.0
0.484734 0.00388509 0.0
0.473656 -0.00158388 0.0
0.472658 0.000307797 0.0
0.48825 -9.14967e-08 0.0
0.486651 5.36054e-05 0.0
0.372877 -0.00327846 0.0
0.371266 -0.00156083 0.0
0.376868 0.00640387 0.0
0.45964 0.013059 0.0
0.457363 0.00409548 0.0
0.441738 -0.00124278 0.0
0.470102 -0.000150784 0.0
0.460685 0.00203571 0.0
0.48393 -0.0273093 0.0
0.493439 -0.0195964 0.0
0.482402 0.00350655 0.0
0.401304 -0.00572042 0.0
0.432597 0.122943 0.0
0.474679 -0.0010023 0.0
0.461046 0.00400172 0.0
0.297304 -0.00354565 0.0
0.440768 -0.000984531 0.0
0.484778 0.05606 0.0
0.380205 -0.0106079 0.0
0.474867 -2.86139e-05 0.0
0.403368 -0.00758252 0.0
0.388726 0.00121214 0.0
0.42215 0.00825659 0.0
0.333992 0.0138197 0.0
0.323107 -0.00100618 0.0
0.326227 -0.0017916 0.0
0.43498 0.000344589 0.0
0.403035 -0.00487308 0.0
0.406052 0.0783087 0.0
0.476418 1.97399e-05 0.0
0.449482 0.00412376 0.0
0.4004 -0.00146441 0.0
0.482909 0.00571717 0.0
0.461055 0.00321289 0.0
0.373957 -0.00672364 0.0
0.329731 -0.010371 0.0
0.486064 0.0580023 0.0
0.387616 0.000592782 0.0
0.440783 -0.00134382 0.0
0.374269 -0.00120615 0.0
0.173357 0.00120961 0.0
0.174354 -0.000818017 0.0
0.173004 0.00134658 0.0
0.126389 0.000883418 0.0
0.487674 -0.000731512 0.0
0.402359 -0.00480422 0.0
0.484624 0.0232875 0.0
0.474534 -0.00231418 0.0
0.412315 -0.0120218 0.0
0.373516 -0.0018805 0.0
0.457926 0.00509781 0.0
0.462965 0.00341214 0.0
0.379038 -6.82798e-05 0.0
0.464368 0.0165032 0.0
0.443478 -0.00260605 0.0
0.47226 -0.000465863 0.0
0.420454 0.00221689 0.0
0.404709 -0.011857 0.0
0.359694 0.00193848 0.0
0.491743 0.00200131 0.0
0.410383 0.00199911 0.0
0.479507 0.00469847 0.0
0.450635 0.00292927 0.0
0.401269 -0.00115628 0.0
0.484436 0.00722688 0.0
0.47944 0.0040595 0.0
0.404329 -0.00875899 0.0
0.487258 0.032967 0.0
0.413605 -0.0106193 0.0
0.475754 -0.00182923 0.0
0.489519 -0.000430003 0.0
0.493679 -0.0124839 0.0
0.490272 -0.000455421 0.0
0.37572 -0.00564081 0.0
0.507356 0.147672 0.0
0.441691 -0.00112512 0.0
0.451984 0.00330177 0.0
0.48202 0.00445756 0.0
0.423611 0.0040764 0.0
0.411653 0.00681183 0.0
0.377926 -0.0110091 0.0
0.479704 0.0351941 0.0
0.402725 -0.00910733 0.0
0.441401 -0.00218951 0.0
0.473462 -0.000396284 0.0
0.459353 0.00336544 0.0
0.482521 -0.0062798 0.0
0.491099 -0.0229426 0.0
0.370786 -0.000344729 0.0
0.458185 0.0094646 0.0
0.41757 0.0128766 0.0
0.325196 0.00164588 0.0
0.45043 0.00112711 0.0
0.482159 -0.037193 0.0
0.371218 -0.00110537 0.0
0.456132 0.0075332 0.0
0.482931 -0.00188476 0.0
0.461528 -0.0127924 0.0
0.348705 -0.00422763 0.0
0.421292 -0.0109638 0.0
0.361419 0.000440852 0.0
0.459286 -0.00758421 0.0
0.605499 -0.189069 0.0
0.373964 -0.0559191 0.0
0.445138 -0.0424257 0.0
0.493307 -0.0320837 0.0
0.443522 -0.00350043 0.0
0.242255 -0.00385421 0.0
0.501061 -0.0451598 0.0
0.440034 -0.0579726 0.0
0.503299 -0.058356 0.0
0.381868 0.0019317 0.0
0.360223 -0.0697265 0.0
0.0883427 -0.000988958 0.0
0.525321 -0.122091 0.0
0.386341 -0.00395969 0.0
0.480742 -0.0725632 0.0
0.302302 -0.00647628 0.0
0.480403 -0.090016 0.0
0.353745 -0.00644735 0.0
0.169514 -0.00795909 0.0
0.130244 0.00179722 0.0
0.142139 0.0029385 0.0
0.519287 -0.102271 0.0
0.294906 -0.0066922 0.0
0.418497 -0.0946116 0.0
0.379431 -0.00242159 0.0
0.411849 -0.113577 0.0
0.272052 0.0102279 0.0
0.377122 0.00402628 0.0
0.40509 0.000981153 0.0
0.178275 0.00382065 0.0
0.0739687 0.000726278 0.0
0.362384 0.000279266 0.0
0.629927 -0.155897 0.0
0.466785 -0.133705 0.0
0.169965 -9.51913e-05 0.0
0.938888 -0.00683948 0.0
0.163776 -0.00268543 0.0
0.385481 0.0140161 0.0
0.420288 0.0269268 0.0
0.907787 -0.0338544 0.0
0.610322 -0.136876 0.0
0.466447 -0.152502 0.0
0.337853 -0.0131534 0.0
0.560789 -0.125913 0.0
0.0720512 0.00179921 0.0
0.635588 -0.208767 0.0
0.168767 -0.00230773 0.0
0.399899 -0.00476124 0.0
0.0959173 -0.00554828 0.0
0.341996 -0.00102529 0.0
0.576251 -0.144383 0.0
0.135871 -0.000611849 0.0
0.353012 -0.00703556 0.0
0.3502 -0.00363094 0.0
0.402371 -0.00035571 0.0
0.52936 -0.168149 0.0
0.40092 0.00222102 0.0
0.466332 0.00444244 0.0
0.538898 -0.185226 0.0
0.329844 -0.00213706 0.0
0.141469 0.00176339 0.0
0.526323 -0.209556 0.0
0.425534 -0.19203 0.0
0.0919531 0.000150218 0.0
0.623758 -0.198796 0.0
0.278729 -0.00155986 0.0
0.297702 0.00351825 0.0
0.348525 0.00786708 0.0
0.165039 -0.000861478 0.0
0.0962565 0.00332747 0.0
0.242489 -0.143013 0.0
0.308696 0.000600905 0.0
0.426595 0.0227203 0.0
0.426271 -0.182269 0.0
0.0807923 0.000626101 0.0
0.0936483 0.000596743 0.0
0.299738 -0.00217666 0.0
0.294046 0.00130414 0.0
0.0916535 -0.000848967 0.0
0.432813 0.00266261 0.0
0.058223 -0.0220127 0.0
0.374113 0.00379746 0.0
0.332826 0.00459512 0.0
0.388144 -0.031266 0.0
0.387623 -0.00192208 0.0
-0.0470574 0.00482899 0.0
0.208363 -0.0319066 0.0
0.711512 -0.194323 0.0
0.206068 0.00490695 0.0
0.212729 -0.130229 0.0
0.158298 -0.000314944 0.0
0.102325 0.00288776 0.0
0.411309 0.00144652 0.0
0.453201 0.0033916 0.0
0.271765 -0.0034794 0.0
0.263671 -0.00158683 0.0
0.303529 -0.000596845 0.0
0.941606 0.00338948 0.0
0.136481 0.000225501 0.0
0.178282 0.00608979 0.0
0.296416 -0.000979867 0.0
0.291896 -0.000612149 0.0
0.290832 0.00781609 0.0
0.156485 0.00119009 0.0
0.360377 0.014834 0.0
0.0819003 0.000611631 0.0
0.349312 0.00229575 0.0
0.385225 0.00433016 0.0
0.439198 0.000498391 0.0
-0.00281115 0.0548945 0.0
0.297601 0.00285858 0.0
0.688369 -0.191479 0.0
0.332258 0.0149979 0.0
0.632577 -0.12381 0.0
0.517511 -0.204767 0.0
0.160611 -0.00287518 0.0
0.659585 -0.205676 0.0
0.384613 -0.00126453 0.0
0.444576 0.00236362 0.0
0.434537 0.00327129 0.0
0.251407 -0.0020314 0.0
0.167168 0.00631552 0.0
0.15306 0.000155339 0.0
0.382434 0.00185129 0.0
0.977428 -0.00530333 0.0
0.142328 -0.00418834 0.0
0.469665 7.41186e-05 0.0
0.134976 0.000372347 0.0
0.323464 -0.0107773 0.0
0.410608 -0.167133 0.0
0.462871 0.00119893 0.0
0.2774 -0.142828 0.0
0.486964 0.00212016 0.0
0.330401 0.00735493 0.0
0.312307 -0.159886 0.0
0.163463 0.00372444 0.0
0.430613 0.0032851 0.0
0.119168 -0.00148087 0.0
0.354927 -0.00105906 0.0
-0.00935702 0.0290199 0.0
0.0888446 2.49303e-06 0.0
0.157296 0.00150644 0.0
0.70711 -0.0891183 0.0
0.886553 -0.0620941 0.0
0.242467 0.00259112 0.0
0.391993 -0.00158935 0.0
0.296813 -0.00929182 0.0
0.320888 -0.000232961 0.0
0.304274 0.00755381 0.0
0.332259 -0.00971312 0.0
0.301548 -0.00123287 0.0
0.380697 -0.00935578 0.0
0.106467 -0.0730989 0.0
0.322339 -0.00129965 0.0
0.376351 -0.00324945 0.0
0.0856579 -5.31245e-05 0.0
0.278691 0.00423337 0.0
0.33529 0.0288131 0.0
0.369031 0.0607489 0.0
0.400164 -0.173067 0.0
0.163609 0.00180489 0.0
0.172078 0.00180425 0.0
0.148044 0.000115418 0.0
0.0880727 0.00171154 0.0
0.428389 0.00270868 0.0
0.0901307 0.00486378 0.0
0.0786291 -0.000685607 0.0
0.376743 -0.00216384 0.0
-0.00351205 0.0712881 0.0
0.198748 -0.010647 0.0
0.171555 -0.00556724 0.0
0.442674 -0.00169402 0.0
0.16915 0.00112072 0.0
0.431526 -0.00161912 0.0
0.279586 -0.00350198 0.0
0.426428 -0.000468843 0.0
0.450642 -0.000237216 0.0
0.144447 0.00142148 0.0
0.310382 0.00361438 0.0
0.136055 -0.00206121 0.0
0.282466 -6.20213e-05 0.0
0.525232 -0.0419469 0.0
0.347349 0.00484104 0.0
0.31202 -0.00476278 0.0
0.173973 -0.00160268 0.0
0.155933 0.00171985 0.0
0.476679 -0.0319432 0.0
0.186133 0.00324061 0.0
0.358925 -0.00307979 0.0
0.35888 0.000738752 0.0
0.493309 -0.0673209 0.0
0.104017 0.00434892 0.0
0.305689 6.78684e-06 0.0
0.311592 -0.00114606 0.0
0.154277 -0.00167044 0.0
0.485498 0.00218547 0.0
0.652852 -0.149547 0.0
0.453169 0.00295641 0.0
0.159378 -0.00205848 0.0
0.104785 0.00351998 0.0
0.313195 0.00248124 0.0
0.0697987 0.0014922 0.0
0.293889 0.00279433 0.0
0.0813178 -0.0021758 0.0
0.330333 0.001227 0.0
0.437068 -0.000195365 0.0
0.415767 0.00595299 0.0
0.133557 0.0046838 0.0
0.307592 -0.00339822 0.0
0.352763 -0.000432726 0.0
0.35998 0.00196855 0.0
0.274034 -0.00102796 0.0
0.167839 8.13874e-05 0.0
0.142866 0.00110203 0.0
0.439664 0.00151677 0.0
0.359259 -0.00419894 0.0
0.084921 -3.89548e-05 0.0
0.419213 0.00596354 0.0
0.514095 -0.063526 0.0