# vtk DataFile Version 3.0
Malha 2D com triângulos e temperatura
ASCII
DATASET UNSTRUCTURED_GRID

POINTS 961 double
0 0 0
1 0 0
1 1 0
0 1 0
0.0333333 0 0
0.0666667 0 0
0.1 0 0
0.133333 0 0
0.166667 0 0
0.2 0 0
0.233333 0 0
0.266667 0 0
0.3 0 0
0.333333 0 0
0.366667 0 0
0.4 0 0
0.433333 0 0
0.466667 0 0
0.5 0 0
0.533333 0 0
0.566667 0 0
0.6 0 0
0.633333 0 0
0.666667 0 0
0.7 0 0
0.733333 0 0
0.766667 0 0
0.8 0 0
0.833333 0 0
0.866667 0 0
0.9 0 0
0.933333 0 0
0.966667 0 0
1 0.0333333 0
1 0.0666667 0
1 0.1 0
1 0.133333 0
1 0.166667 0
1 0.2 0
1 0.233333 0
1 0.266667 0
1 0.3 0
1 0.333333 0
1 0.366667 0
1 0.4 0
1 0.433333 0
1 0.466667 0
1 0.5 0
1 0.533333 0
1 0.566667 0
1 0.6 0
1 0.633333 0
1 0.666667 0
1 0.7 0
1 0.733333 0
1 0.766667 0
1 0.8 0
1 0.833333 0
1 0.866667 0
1 0.9 0
1 0.933333 0
1 0.966667 0
0.966667 1 0
0.933333 1 0
0.9 1 0
0.866667 1 0
0.833333 1 0
0.8 1 0
0.766667 1 0
0.733333 1 0
0.7 1 0
0.666667 1 0
0.633333 1 0
0.6 1 0
0.566667 1 0
0.533333 1 0
0.5 1 0
0.466667 1 0
0.433333 1 0
0.4 1 0
0.366667 1 0
0.333333 1 0
0.3 1 0
0.266667 1 0
0.233333 1 0
0.2 1 0
0.166667 1 0
0.133333 1 0
0.1 1 0
0.0666667 1 0
0.0333333 1 0
0 0.966667 0
0 0.933333 0
0 0.9 0
0 0.866667 0
0 0.833333 0
0 0.8 0
0 0.766667 0
0 0.733333 0
0 0.7 0
0 0.666667 0
0 0.633333 0
0 0.6 0
0 0.566667 0
0 0.533333 0
0 0.5 0
0 0.466667 0
0 0.433333 0
0 0.4 0
0 0.366667 0
0 0.333333 0
0 0.3 0
0 0.266667 0
0 0.233333 0
0 0.2 0
0 0.166667 0
0 0.133333 0
0 0.1 0
0 0.0666667 0
0 0.0333333 0
0.0333333 0.0333333 0
0.0333333 0.0666667 0
0.0333333 0.1 0
0.0333333 0.133333 0
0.0333333 0.166667 0
0.0333333 0.2 0
0.0333333 0.233333 0
0.0333333 0.266667 0
0.0333333 0.3 0
0.0333333 0.333333 0
0.0333333 0.366667 0
0.0333333 0.4 0
0.0333333 0.433333 0
0.0333333 0.466667 0
0.0333333 0.5 0
0.0333333 0.533333 0
0.0333333 0.566667 0
0.0333333 0.6 0
0.0333333 0.633333 0
0.0333333 0.666667 0
0.0333333 0.7 0
0.0333333 0.733333 0
0.0333333 0.766667 0
0.0333333 0.8 0
0.0333333 0.833333 0
0.0333333 0.866667 0
0.0333333 0.9 0
0.0333333 0.933333 0
0.0333333 0.966667 0
0.0666667 0.0333333 0
0.0666667 0.0666667 0
0.0666667 0.1 0
0.0666667 0.133333 0
0.0666667 0.166667 0
0.0666667 0.2 0
0.0666667 0.233333 0
0.0666667 0.266667 0
0.0666667 0.3 0
0.0666667 0.333333 0
0.0666667 0.366667 0
0.0666667 0.4 0
0.0666667 0.433333 0
0.0666667 0.466667 0
0.0666667 0.5 0
0.0666667 0.533333 0
0.0666667 0.566667 0
0.0666667 0.6 0
0.0666667 0.633333 0
0.0666667 0.666667 0
0.0666667 0.7 0
0.0666667 0.733333 0
0.0666667 0.766667 0
0.0666667 0.8 0
0.0666667 0.833333 0
0.0666667 0.866667 0
0.0666667 0.9 0
0.0666667 0.933333 0
0.0666667 0.966667 0
0.1 0.0333333 0
0.1 0.0666667 0
0.1 0.1 0
0.1 0.133333 0
0.1 0.166667 0
0.1 0.2 0
0.1 0.233333 0
0.1 0.266667 0
0.1 0.3 0
0.1 0.333333 0
0.1 0.366667 0
0.1 0.4 0
0.1 0.433333 0
0.1 0.466667 0
0.1 0.5 0
0.1 0.533333 0
0.1 0.566667 0
0.1 0.6 0
0.1 0.633333 0
0.1 0.666667 0
0.1 0.7 0
0.1 0.733333 0
0.1 0.766667 0
0.1 0.8 0
0.1 0.833333 0
0.1 0.866667 0
0.1 0.9 0
0.1 0.933333 0
0.1 0.966667 0
0.133333 0.0333333 0
0.133333 0.0666667 0
0.133333 0.1 0
0.133333 0.133333 0
0.133333 0.166667 0
0.133333 0.2 0
0.133333 0.233333 0
0.133333 0.266667 0
0.133333 0.3 0
0.133333 0.333333 0
0.133333 0.366667 0
0.133333 0.4 0
0.133333 0.433333 0
0.133333 0.466667 0
0.133333 0.5 0
0.133333 0.533333 0
0.133333 0.566667 0
0.133333 0.6 0
0.133333 0.633333 0
0.133333 0.666667 0
0.133333 0.7 0
0.133333 0.733333 0
0.133333 0.766667 0
0.133333 0.8 0
0.133333 0.833333 0
0.133333 0.866667 0
0.133333 0.9 0
0.133333 0.933333 0
0.133333 0.966667 0
0.166667 0.0333333 0
0.166667 0.0666667 0
0.166667 0.1 0
0.166667 0.133333 0
0.166667 0.166667 0
0.166667 0.2 0
0.166667 0.233333 0
0.166667 0.266667 0
0.166667 0.3 0
0.166667 0.333333 0
0.166667 0.366667 0
0.166667 0.4 0
0.166667 0.433333 0
0.166667 0.466667 0
0.166667 0.5 0
0.166667 0.533333 0
0.166667 0.566667 0
0.166667 0.6 0
0.166667 0.633333 0
0.166667 0.666667 0
0.166667 0.7 0
0.166667 0.733333 0
0.166667 0.766667 0
0.166667 0.8 0
0.166667 0.833333 0
0.166667 0.866667 0
0.166667 0.9 0
0.166667 0.933333 0
0.166667 0.966667 0
0.2 0.0333333 0
0.2 0.0666667 0
0.2 0.1 0
0.2 0.133333 0
0.2 0.166667 0
0.2 0.2 0
0.2 0.233333 0
0.2 0.266667 0
0.2 0.3 0
0.2 0.333333 0
0.2 0.366667 0
0.2 0.4 0
0.2 0.433333 0
0.2 0.466667 0
0.2 0.5 0
0.2 0.533333 0
0.2 0.566667 0
0.2 0.6 0
0.2 0.633333 0
0.2 0.666667 0
0.2 0.7 0
0.2 0.733333 0
0.2 0.766667 0
0.2 0.8 0
0.2 0.833333 0
0.2 0.866667 0
0.2 0.9 0
0.2 0.933333 0
0.2 0.966667 0
0.233333 0.0333333 0
0.233333 0.0666667 0
0.233333 0.1 0
0.233333 0.133333 0
0.233333 0.166667 0
0.233333 0.2 0
0.233333 0.233333 0
0.233333 0.266667 0
0.233333 0.3 0
0.233333 0.333333 0
0.233333 0.366667 0
0.233333 0.4 0
0.233333 0.433333 0
0.233333 0.466667 0
0.233333 0.5 0
0.233333 0.533333 0
0.233333 0.566667 0
0.233333 0.6 0
0.233333 0.633333 0
0.233333 0.666667 0
0.233333 0.7 0
0.233333 0.733333 0
0.233333 0.766667 0
0.233333 0.8 0
0.233333 0.833333 0
0.233333 0.866667 0
0.233333 0.9 0
0.233333 0.933333 0
0.233333 0.966667 0
0.266667 0.0333333 0
0.266667 0.0666667 0
0.266667 0.1 0
0.266667 0.133333 0
0.266667 0.166667 0
0.266667 0.2 0
0.266667 0.233333 0
0.266667 0.266667 0
0.266667 0.3 0
0.266667 0.333333 0
0.266667 0.366667 0
0.266667 0.4 0
0.266667 0.433333 0
0.266667 0.466667 0
0.266667 0.5 0
0.266667 0.533333 0
0.266667 0.566667 0
0.266667 0.6 0
0.266667 0.633333 0
0.266667 0.666667 0
0.266667 0.7 0
0.266667 0.733333 0
0.266667 0.766667 0
0.266667 0.8 0
0.266667 0.833333 0
0.266667 0.866667 0
0.266667 0.9 0
0.266667 0.933333 0
0.266667 0.966667 0
0.3 0.0333333 0
0.3 0.0666667 0
0.3 0.1 0
0.3 0.133333 0
0.3 0.166667 0
0.3 0.2 0
0.3 0.233333 0
0.3 0.266667 0
0.3 0.3 0
0.3 0.333333 0
0.3 0.366667 0
0.3 0.4 0
0.3 0.433333 0
0.3 0.466667 0
0.3 0.5 0
0.3 0.533333 0
0.3 0.566667 0
0.3 0.6 0
0.3 0.633333 0
0.3 0.666667 0
0.3 0.7 0
0.3 0.733333 0
0.3 0.766667 0
0.3 0.8 0
0.3 0.833333 0
0.3 0.866667 0
0.3 0.9 0
0.3 0.933333 0
0.3 0.966667 0
0.333333 0.0333333 0
0.333333 0.0666667 0
0.333333 0.1 0
0.333333 0.133333 0
0.333333 0.166667 0
0.333333 0.2 0
0.333333 0.233333 0
0.333333 0.266667 0
0.333333 0.3 0
0.333333 0.333333 0
0.333333 0.366667 0
0.333333 0.4 0
0.333333 0.433333 0
0.333333 0.466667 0
0.333333 0.5 0
0.333333 0.533333 0
0.333333 0.566667 0
0.333333 0.6 0
0.333333 0.633333 0
0.333333 0.666667 0
0.333333 0.7 0
0.333333 0.733333 0
0.333333 0.766667 0
0.333333 0.8 0
0.333333 0.833333 0
0.333333 0.866667 0
0.333333 0.9 0
0.333333 0.933333 0
0.333333 0.966667 0
0.366667 0.0333333 0
0.366667 0.0666667 0
0.366667 0.1 0
0.366667 0.133333 0
0.366667 0.166667 0
0.366667 0.2 0
0.366667 0.233333 0
0.366667 0.266667 0
0.366667 0.3 0
0.366667 0.333333 0
0.366667 0.366667 0
0.366667 0.4 0
0.366667 0.433333 0
0.366667 0.466667 0
0.366667 0.5 0
0.366667 0.533333 0
0.366667 0.566667 0
0.366667 0.6 0
0.366667 0.633333 0
0.366667 0.666667 0
0.366667 0.7 0
0.366667 0.733333 0
0.366667 0.766667 0
0.366667 0.8 0
0.366667 0.833333 0
0.366667 0.866667 0
0.366667 0.9 0
0.366667 0.933333 0
0.366667 0.966667 0
0.4 0.0333333 0
0.4 0.0666667 0
0.4 0.1 0
0.4 0.133333 0
0.4 0.166667 0
0.4 0.2 0
0.4 0.233333 0
0.4 0.266667 0
0.4 0.3 0
0.4 0.333333 0
0.4 0.366667 0
0.4 0.4 0
0.4 0.433333 0
0.4 0.466667 0
0.4 0.5 0
0.4 0.533333 0
0.4 0.566667 0
0.4 0.6 0
0.4 0.633333 0
0.4 0.666667 0
0.4 0.7 0
0.4 0.733333 0
0.4 0.766667 0
0.4 0.8 0
0.4 0.833333 0
0.4 0.866667 0
0.4 0.9 0
0.4 0.933333 0
0.4 0.966667 0
0.433333 0.0333333 0
0.433333 0.0666667 0
0.433333 0.1 0
0.433333 0.133333 0
0.433333 0.166667 0
0.433333 0.2 0
0.433333 0.233333 0
0.433333 0.266667 0
0.433333 0.3 0
0.433333 0.333333 0
0.433333 0.366667 0
0.433333 0.4 0
0.433333 0.433333 0
0.433333 0.466667 0
0.433333 0.5 0
0.433333 0.533333 0
0.433333 0.566667 0
0.433333 0.6 0
0.433333 0.633333 0
0.433333 0.666667 0
0.433333 0.7 0
0.433333 0.733333 0
0.433333 0.766667 0
0.433333 0.8 0
0.433333 0.833333 0
0.433333 0.866667 0
0.433333 0.9 0
0.433333 0.933333 0
0.433333 0.966667 0
0.466667 0.0333333 0
0.466667 0.0666667 0
0.466667 0.1 0
0.466667 0.133333 0
0.466667 0.166667 0
0.466667 0.2 0
0.466667 0.233333 0
0.466667 0.266667 0
0.466667 0.3 0
0.466667 0.333333 0
0.466667 0.366667 0
0.466667 0.4 0
0.466667 0.433333 0
0.466667 0.466667 0
0.466667 0.5 0
0.466667 0.533333 0
0.466667 0.566667 0
0.466667 0.6 0
0.466667 0.633333 0
0.466667 0.666667 0
0.466667 0.7 0
0.466667 0.733333 0
0.466667 0.766667 0
0.466667 0.8 0
0.466667 0.833333 0
0.466667 0.866667 0
0.466667 0.9 0
0.466667 0.933333 0
0.466667 0.966667 0
0.5 0.0333333 0
0.5 0.0666667 0
0.5 0.1 0
0.5 0.133333 0
0.5 0.166667 0
0.5 0.2 0
0.5 0.233333 0
0.5 0.266667 0
0.5 0.3 0
0.5 0.333333 0
0.5 0.366667 0
0.5 0.4 0
0.5 0.433333 0
0.5 0.466667 0
0.5 0.5 0
0.5 0.533333 0
0.5 0.566667 0
0.5 0.6 0
0.5 0.633333 0
0.5 0.666667 0
0.5 0.7 0
0.5 0.733333 0
0.5 0.766667 0
0.5 0.8 0
0.5 0.833333 0
0.5 0.866667 0
0.5 0.9 0
0.5 0.933333 0
0.5 0.966667 0
0.533333 0.0333333 0
0.533333 0.0666667 0
0.533333 0.1 0
0.533333 0.133333 0
0.533333 0.166667 0
0.533333 0.2 0
0.533333 0.233333 0
0.533333 0.266667 0
0.533333 0.3 0
0.533333 0.333333 0
0.533333 0.366667 0
0.533333 0.4 0
0.533333 0.433333 0
0.533333 0.466667 0
0.533333 0.5 0
0.533333 0.533333 0
0.533333 0.566667 0
0.533333 0.6 0
0.533333 0.633333 0
0.533333 0.666667 0
0.533333 0.7 0
0.533333 0.733333 0
0.533333 0.766667 0
0.533333 0.8 0
0.533333 0.833333 0
0.533333 0.866667 0
0.533333 0.9 0
0.533333 0.933333 0
0.533333 0.966667 0
0.566667 0.0333333 0
0.566667 0.0666667 0
0.566667 0.1 0
0.566667 0.133333 0
0.566667 0.166667 0
0.566667 0.2 0
0.566667 0.233333 0
0.566667 0.266667 0
0.566667 0.3 0
0.566667 0.333333 0
0.566667 0.366667 0
0.566667 0.4 0
0.566667 0.433333 0
0.566667 0.466667 0
0.566667 0.5 0
0.566667 0.533333 0
0.566667 0.566667 0
0.566667 0.6 0
0.566667 0.633333 0
0.566667 0.666667 0
0.566667 0.7 0
0.566667 0.733333 0
0.566667 0.766667 0
0.566667 0.8 0
0.566667 0.833333 0
0.566667 0.866667 0
0.566667 0.9 0
0.566667 0.933333 0
0.566667 0.966667 0
0.6 0.0333333 0
0.6 0.0666667 0
0.6 0.1 0
0.6 0.133333 0
[...]
CELL_DATA 900
VECTORS velocity double
0.0489806 0.0247052 0.0
0.0431479 0.0286414 0.0
0.0440438 0.000865976 0.0
0.083879 0.00367348 0.0
0.061994 0.00393822 0.0
0.00722985 0.0182708 0.0
-0.0142079 -0.0198707 0.0
0.0110625 -0.000787601 0.0
-0.00920394 0.00956462 0.0
-0.00247515 0.0260856 0.0
0.0271006 -0.0316116 0.0
0.102743 -0.00973944 0.0
0.0682602 0.0117324 0.0
0.0406141 0.0208452 0.0
0.0102166 -0.020099 0.0
0.0418543 -0.0635987 0.0
0.0625996 -0.00422105 0.0
0.072174 0.0613144 0.0
0.0607989 0.0381539 0.0
0.0585036 0.0423128 0.0
0.0406192 0.0486109 0.0
0.029628 0.0980376 0.0
0.0269299 0.126672 0.0
-0.00907888 0.147773 0.0
0.0090536 0.135744 0.0
0.0197871 0.13048 0.0
-0.00210023 0.190942 0.0
0.00789227 0.199691 0.0
0.0966909 0.179107 0.0
0.344682 0.092963 0.0
0.0491644 0.0469736 0.0
0.0637187 0.0319155 0.0
0.0716965 0.00744013 0.0
0.0954658 0.0646587 0.0
0.121724 0.0129521 0.0
0.0477062 0.046038 0.0
0.0183258 0.00348506 0.0
0.0134069 -0.0209642 0.0
0.00275981 -0.00236487 0.0
0.09694 0.00569791 0.0
0.0924324 -0.00492036 0.0
0.0453619 -0.0139194 0.0
0.0396379 -0.0197754 0.0
0.0438204 0.036938 0.0
0.0218599 -0.0207916 0.0
0.0253835 0.00266336 0.0
0.0270675 0.0528801 0.0
0.0663025 0.103087 0.0
0.0520969 0.0709001 0.0
0.0499849 0.128724 0.0
0.0673821 0.0996333 0.0
0.06788 0.238946 0.0
0.0121384 0.264471 0.0
-0.019589 0.227088 0.0
-0.00390283 0.252015 0.0
-0.000939383 0.247707 0.0
-0.0145227 0.347355 0.0
0.000660687 0.360852 0.0
0.131175 0.328202 0.0
0.509553 0.188317 0.0
0.0597828 -0.0164212 0.0
0.0823986 0.0323873 0.0
0.0494316 0.0168272 0.0
0.0841863 -0.00267629 0.0
0.0829851 0.0150345 0.0
0.0503634 0.0214066 0.0
0.0408661 -0.0160132 0.0
-0.0270719 -0.0108837 0.0
0.00781296 0.0197846 0.0
-0.028173 -0.00803476 0.0
0.0145036 -0.0268039 0.0
0.0209416 0.017322 0.0
0.071814 0.0182447 0.0
0.0322982 0.0375117 0.0
0.0239959 0.040323 0.0
-0.00263465 0.059095 0.0
0.0368481 0.0846199 0.0
0.0718023 0.135411 0.0
0.0679891 0.105841 0.0
0.0321181 0.155289 0.0
0.0491035 0.182683 0.0
0.0179784 0.231047 0.0
-0.011732 0.238385 0.0
0.0229777 0.270812 0.0
-0.0168094 0.243694 0.0
-0.0508805 0.274622 0.0
-0.0625701 0.344765 0.0
-0.0215221 0.31779 0.0
0.137654 0.325005 0.0
0.59705 0.222531 0.0
0.0716758 -0.00115025 0.0
0.0907973 0.00965451 0.0
0.0541681 -0.0204551 0.0
0.00960685 -0.0350744 0.0
0.0668504 0.0213582 0.0
0.0242413 -0.0408416 0.0
0.02584 -0.0175808 0.0
0.072264 -0.0572044 0.0
0.0835079 0.054287 0.0
0.0716182 -0.00314803 0.0
0.0600018 -0.0610939 0.0
0.0793357 -0.0151917 0.0
-0.00618047 0.0489584 0.0
0.00670444 0.0296396 0.0
0.0186809 0.0449055 0.0
-0.033937 0.107464 0.0
0.00329305 0.097617 0.0
0.0497852 0.123556 0.0
0.0794875 0.139054 0.0
0.0426396 0.161671 0.0
0.0483134 0.175019 0.0
-0.0169005 0.228659 0.0
-0.0599133 0.293286 0.0
-0.0150657 0.253839 0.0
-0.0796165 0.277236 0.0
-0.0918874 0.289164 0.0
-0.0743403 0.311932 0.0
-0.0170152 0.27949 0.0
0.172047 0.281031 0.0
0.642644 0.221054 0.0
0.0479726 0.00571253 0.0
0.0633653 -0.0266543 0.0
-0.0184478 -0.0314622 0.0
0.0672427 0.0332649 0.0
0.0591655 0.0131031 0.0
0.0660312 0.00247671 0.0
0.0181134 0.00962047 0.0
0.00713566 -0.107727 0.0
0.0185072 -0.0135352 0.0
0.0149648 -0.0181233 0.0
-0.0151414 -0.0151589 0.0
-0.010959 -0.0132649 0.0
-0.00790357 0.00593444 0.0
-0.0151178 0.0718267 0.0
0.00437096 0.0277369 0.0
0.0424432 0.0279026 0.0
0.0386321 0.0858993 0.0
-0.0109649 0.0964399 0.0
0.00285761 0.103522 0.0
0.00603624 0.12306 0.0
-0.0402515 0.169015 0.0
-0.0461207 0.205352 0.0
-0.0727357 0.204962 0.0
-0.0667062 0.248101 0.0
-0.0646996 0.252978 0.0
-0.0968486 0.28781 0.0
-0.0847952 0.267659 0.0
-0.000360152 0.258941 0.0
0.168605 0.259776 0.0
0.648518 0.187602 0.0
0.0450199 -0.0468166 0.0
0.0452619 -0.0664404 0.0
0.0493666 -0.0141127 0.0
0.0491607 0.00428396 0.0
0.0227884 0.0367583 0.0
0.0893854 -0.0187539 0.0
0.037665 -0.0124411 0.0
0.00352623 -0.0542282 0.0
0.00652862 -0.00820792 0.0
-0.0281279 -0.00635334 0.0
-0.0402978 0.0114911 0.0
-0.0267992 -0.0511953 0.0
0.0387125 0.0196231 0.0
0.00903126 0.073579 0.0
0.0282659 0.0451085 0.0
-0.00636919 0.00372855 0.0
-0.0255928 0.0410987 0.0
0.0457716 0.105645 0.0
0.0657455 0.0924221 0.0
0.0180427 0.066177 0.0
-0.0582803 0.142177 0.0
-0.0193009 0.187443 0.0
0.0131314 0.164197 0.0
-0.0252576 0.217722 0.0
-0.0766754 0.266242 0.0
-0.0459599 0.244097 0.0
-0.0608063 0.22962 0.0
0.0176367 0.223264 0.0
0.191664 0.198103 0.0
0.609141 0.141698 0.0
0.0297761 -0.0853911 0.0
0.0266711 -0.0778562 0.0
-0.0232747 -0.0367228 0.0
0.00440047 0.01973 0.0
-0.00731932 0.0154492 0.0
-0.0448955 0.0358967 0.0
0.000145578 -0.0319511 0.0
0.0284518 -0.0609223 0.0
-0.0190255 0.0153797 0.0
-0.0163749 0.000920833 0.0
-0.0360481 0.00378269 0.0
-0.03269 0.00507507 0.0
-0.0454295 0.00683427 0.0
-0.0339274 0.0652711 0.0
-0.0907668 0.0638899 0.0
-0.0304536 0.0136738 0.0
-0.017539 0.0770989 0.0
-0.00875576 0.0527078 0.0
-0.0266702 0.134942 0.0
0.0285238 0.138686 0.0
0.0168304 0.125451 0.0
-0.0476985 0.138693 0.0
-0.0736269 0.17974 0.0
-0.122871 0.198726 0.0
-0.0725492 0.238977 0.0
-0.0819572 0.210958 0.0
-0.130916 0.170845 0.0
0.00226369 0.199933 0.0
0.208512 0.136695 0.0
0.632798 0.106987 0.0
0.000397751 -0.0437912 0.0
0.0573381 -0.0194084 0.0
0.0595097 -0.0161575 0.0
-0.0171367 0.0329967 0.0
-0.000786308 -0.031206 0.0
0.0497223 0.046038 0.0
0.0360708 -0.031685 0.0
0.0367042 -0.0761936 0.0
0.0272362 0.0363154 0.0
-0.0421945 -0.0634055 0.0
-0.062389 0.0154086 0.0
-0.0568348 -0.0070093 0.0
-0.0605748 0.00908169 0.0
-0.0725579 0.0990986 0.0
-0.0651928 0.0470696 0.0
-0.0952975 0.0221276 0.0
-0.063045 0.0347402 0.0
0.00309921 0.0241973 0.0
-0.00317611 0.0688485 0.0
-0.0557938 0.106061 0.0
-0.0781703 0.0977006 0.0
-0.0857904 0.132094 0.0
-0.131963 0.121414 0.0
-0.119059 0.184687 0.0
-0.0950879 0.157733 0.0
-0.171242 0.149977 0.0
-0.0818434 0.111242 0.0
0.0452693 0.123361 0.0
0.258806 0.0833484 0.0
0.67899 0.0822906 0.0
-0.00884073 -0.00844573 0.0
0.00202455 0.0221253 0.0
0.00579839 0.00248432 0.0
-0.0700999 0.0673251 0.0
0.00419371 -0.0697303 0.0
-0.0401268 -0.0392434 0.0
-0.0114287 0.0185875 0.0
0.00120022 -0.0391519 0.0
0.0411201 0.0237566 0.0
-0.0452912 -0.0202686 0.0
-0.0676552 0.0238881 0.0
-0.0888485 -0.0308735 0.0
-0.0558779 -0.0500817 0.0
-0.0817912 0.0556155 0.0
-0.112219 0.0107976 0.0
-0.0888825 0.0325643 0.0
-0.0574929 -0.0120131 0.0
-0.0757678 0.0765532 0.0
-0.0310195 0.0395043 0.0
-0.0738168 0.0736386 0.0
-0.116786 0.0564379 0.0
-0.109431 0.0946404 0.0
-0.0641078 0.113974 0.0
-0.095201 0.180152 0.0
-0.113019 0.123095 0.0
-0.0808042 0.0756544 0.0
-0.0628048 0.083535 0.0
0.0638155 0.0775056 0.0
0.30171 0.0399995 0.0
0.703132 0.0478087 0.0
0.0538285 0.0492283 0.0
0.0121638 0.109029 0.0
-0.0127872 -0.0436246 0.0
0.00727123 0.0112151 0.0
0.0219488 -0.0447216 0.0
0.0529138 0.00430212 0.0
0.0498496 -0.0235636 0.0
0.0260489 -0.0124321 0.0
0.00542548 -0.0118962 0.0
0.0334563 0.0116676 0.0
-0.0671067 0.0315715 0.0
-0.0200784 -0.0201752 0.0
-0.0280658 -0.0316103 0.0
-0.0628591 0.0171883 0.0
-0.0682752 0.0527887 0.0
-0.0618455 0.0504826 0.0
-0.0373704 0.0137611 0.0
-0.052649 0.0701217 0.0
-0.0425498 0.0164055 0.0
-0.0777459 0.0729828 0.0
-0.0734225 0.033372 0.0
-0.0677517 0.11858 0.0
-0.0980679 0.0733591 0.0
-0.107702 0.127242 0.0
-0.089513 0.089092 0.0
-0.043603 0.126631 0.0
0.00307735 0.0810872 0.0
0.0376121 0.0351973 0.0
0.281528 0.0118418 0.0
0.69902 0.0516402 0.0
0.0137762 0.0333984 0.0
0.0280437 0.0758037 0.0
0.0364316 -0.0254243 0.0
0.0735189 0.0281901 0.0
0.0186592 -0.0301893 0.0
-0.00459429 0.0584626 0.0
-0.0221518 -0.0236622 0.0
-0.0189571 -0.0481315 0.0
-0.0145911 -0.000318325 0.0
-0.0537639 -0.0274221 0.0
-0.0387888 0.0351804 0.0
-0.048462 0.0168069 0.0
-0.0531288 -0.076761 0.0
-0.0712442 -0.00182085 0.0
-0.0743162 0.0497474 0.0
-0.0286134 0.0713179 0.0
-0.0633583 -0.00310951 0.0
-0.0585118 0.00948819 0.0
-0.107959 0.0295183 0.0
-0.129585 0.0270416 0.0
-0.166781 0.0723621 0.0
-0.145878 0.0699269 0.0
-0.12578 0.0790879 0.0
-0.129664 0.103104 0.0
-0.176813 0.0799316 0.0
-0.115781 0.120012 0.0
0.00883249 0.13131 0.0
0.0754082 0.0565513 0.0
0.308236 0.0309578 0.0
0.661382 0.0223467 0.0
0.0159839 0.0191533 0.0
-0.0224437 0.020781 0.0
-0.00290525 -0.0202034 0.0
0.0227648 0.0292278 0.0
0.0285318 0.0105816 0.0
0.0300647 0.0155687 0.0
0.0820304 -0.0209494 0.0
0.102153 -0.0452323 0.0
0.0602867 -0.00772139 0.0
-0.056828 -0.0195309 0.0
-0.0502575 0.0224818 0.0
-0.075225 0.0351973 0.0
-0.0934691 -0.0227921 0.0
-0.0127028 -0.0385228 0.0
-0.0260214 0.0312435 0.0
-0.0216982 0.0417963 0.0
-0.0479984 0.0156981 0.0
-0.119399 0.0322487 0.0
-0.0968371 0.0149359 0.0
-0.0814494 -0.00535228 0.0
-0.116657 0.0621363 0.0
-0.095795 0.0352153 0.0
-0.129531 0.0640658 0.0
-0.121635 0.154471 0.0
-0.0838185 0.108037 0.0
-0.0472934 0.0478869 0.0
0.00966258 0.0860418 0.0
0.0841321 0.122054 0.0
0.367453 0.03131 0.0
0.706879 -0.00920094 0.0
0.0211587 -0.0296015 0.0
0.0200773 0.0285517 0.0
-0.0207924 -0.0321856 0.0
-0.0441749 -0.0140866 0.0
-0.0438762 0.00796955 0.0
-0.0262501 0.031883 0.0
-0.0188848 0.0176093 0.0
0.059212 -0.0419778 0.0
0.0310712 -0.0293788 0.0
0.00413021 0.0519491 0.0
-0.0779447 -0.0285369 0.0
-0.0940195 -0.00448888 0.0
-0.0985909 -0.0299 0.0
-0.0839278 -0.000854575 0.0
-0.0827253 -0.0222978 0.0
-0.16638 0.0441652 0.0
-0.143417 -0.0235427 0.0
-0.133912 -0.0196373 0.0
-0.202931 0.0546814 0.0
-0.131323 0.0280202 0.0
-0.10609 0.0482043 0.0
-0.157451 0.0423886 0.0
-0.19242 0.101273 0.0
-0.150361 0.123862 0.0
-0.201302 0.0511836 0.0
-0.0970338 0.125738 0.0
-0.00277283 0.0344687 0.0
0.129454 0.0808917 0.0
0.368714 0.0192453 0.0
0.741313 -0.00562721 0.0
0.00572753 0.0124555 0.0
-0.0145094 0.0217575 0.0
0.00777738 0.0123871 0.0
-0.00710314 0.0258477 0.0
-0.0174876 -0.0156895 0.0
0.0435738 0.00499669 0.0
0.0670598 0.00902362 0.0
0.113361 -0.0558371 0.0
0.0629826 -0.0305206 0.0
0.0390986 0.0201547 0.0
-0.0321133 -0.0206178 0.0
-0.0701647 0.0286115 0.0
-0.0284066 -0.00891623 0.0
-0.0592988 -0.00204259 0.0
-0.0316677 -0.0197247 0.0
-0.0744306 0.0158234 0.0
-0.0807128 -0.0176605 0.0
-0.0595531 -0.0212757 0.0
-0.125311 0.00197765 0.0
-0.122193 0.0291167 0.0
-0.135124 0.0422834 0.0
-0.124547 0.024777 0.0
-0.0888782 0.0577031 0.0
-0.117728 0.00268269 0.0
-0.0948096 0.0993227 0.0
-0.109455 0.0819478 0.0
0.00219707 0.0405221 0.0
0.167613 0.0495569 0.0
0.449237 -0.000827671 0.0
0.768642 -0.00613979 0.0
0.0232775 -0.0223495 0.0
-0.00549173 0.0239865 0.0
-0.0137094 -0.0145973 0.0
-0.0490381 -0.00673063 0.0
-0.0419739 -0.00742897 0.0
-0.00541123 -0.0454599 0.0
0.0373854 0.0130318 0.0
-0.0213286 -0.0301652 0.0
0.0368408 0.00679474 0.0
0.0233054 -0.0178515 0.0
-0.0568695 -0.0269376 0.0
-0.0461607 0.0120774 0.0
-0.064403 -0.0289759 0.0
-0.0238458 0.0258048 0.0
-0.0308307 -0.0201561 0.0
-0.0425598 -0.0442439 0.0
-0.0750094 -0.0417817 0.0
-0.102877 -0.0220312 0.0
-0.163026 -0.0204437 0.0
-0.158464 0.0155534 0.0
-0.130959 -0.0104334 0.0
-0.0851875 0.0315972 0.0
-0.123158 0.0935593 0.0
-0.112738 0.0300879 0.0
-0.0818489 0.0356409 0.0
-0.0946076 0.0971506 0.0
-0.0110649 0.0294256 0.0
0.140868 -0.0282094 0.0
0.401583 0.00395522 0.0
0.763197 0.0088849 0.0
-0.0137056 -0.0622401 0.0
0.0377577 -0.0349348 0.0
0.0027479 -0.0183145 0.0
-0.0338454 -0.0302079 0.0
-0.0338565 -0.00420791 0.0
0.00828602 -0.00594244 0.0
-0.00641496 -0.0512363 0.0
0.0370155 -0.050602 0.0
0.00219991 -0.0200175 0.0
0.00207397 -0.0256632 0.0
-0.0463877 -0.0404883 0.0
-0.0462702 -0.0347342 0.0
-0.0834035 0.026454 0.0
-0.0322482 -0.0236097 0.0
-0.0350949 -0.0306141 0.0
-0.0348924 -0.082707 0.0
-0.0474809 -0.0616871 0.0
-0.107926 -0.0985841 0.0
-0.131622 -0.0584608 0.0
-0.132829 -0.0247705 0.0
-0.109241 -0.0050863 0.0
-0.111385 0.028302 0.0
-0.0764989 0.0428098 0.0
-0.126174 0.0660237 0.0
-0.0831733 0.0519731 0.0
-0.0580104 0.0309856 0.0
-0.0249383 -0.00514772 0.0
0.204188 0.0158045 0.0
0.417066 0.0192972 0.0
0.75571 0.0168913 0.0
-0.00322373 -0.0325737 0.0
-0.0120175 -0.0616433 0.0
0.0259212 0.0346541 0.0
0.0208025 -0.0392262 0.0
-0.0115937 -0.00964712 0.0
-0.00496961 0.0155395 0.0
0.0431307 -0.0401789 0.0
0.0601432 -0.0724179 0.0
0.00338062 -0.0686481 0.0
0.0180944 -0.0491585 0.0
-0.0232616 -0.109438 0.0
-0.0354856 -0.0207544 0.0
-0.0467147 -0.0712707 0.0
-0.0749316 0.0035994 0.0
-0.0983094 -0.0554015 0.0
-0.0874706 -0.063577 0.0
-0.0822533 -0.0554879 0.0
-0.121606 -0.0538005 0.0
-0.134503 -0.0576868 0.0
-0.103067 -0.0951053 0.0
-0.11228 0.0233896 0.0
-0.0915542 0.0287469 0.0
-0.108925 0.0246656 0.0
-0.106922 0.0716709 0.0
-0.10358 0.0284092 0.0
-0.0318558 0.0217464 0.0
0.0750106 0.0222351 0.0
0.230626 0.0151485 0.0
0.435639 -0.00405478 0.0
0.761054 0.0274941 0.0
0.0124762 -0.0405388 0.0
0.0138032 -0.0267957 0.0
-0.0170199 0.0503359 0.0
-0.00633162 -0.0157176 0.0
0.0448111 -0.00383765 0.0
0.0221373 0.0244019 0.0
0.0391073 -0.0426342 0.0
0.0156753 -0.0709217 0.0
0.0247176 -0.0210843 0.0
0.0589215 -0.0791828 0.0
-0.0141422 -0.0898402 0.0
-0.0370889 -0.0367583 0.0
-0.0685639 -0.106868 0.0
-0.0884761 -0.0382209 0.0
-0.0475475 -0.0809722 0.0
-0.0300415 -0.0378868 0.0
-0.0917215 -0.0830953 0.0
-0.128407 -0.083274 0.0
-0.0820907 -0.0208391 0.0
-0.116795 -0.0525828 0.0
-0.0618077 -0.0203086 0.0
-0.0843131 0.019671 0.0
-0.0633741 0.00893708 0.0
-0.0467142 0.0515279 0.0
-0.0556943 0.0544159 0.0
-0.0223924 0.0226717 0.0
0.0589113 0.0185675 0.0
0.216559 0.0237806 0.0
0.471273 0.00693278 0.0
0.7397 0.00566986 0.0
0.0053301 -0.0145659 0.0
-0.0390612 -0.00529883 0.0
-0.0438078 0.0510975 0.0
-0.00201751 -0.025775 0.0
-0.0517459 0.00374686 0.0
0.0126919 -0.0460506 0.0
-0.0309052 -0.0080697 0.0
0.0504093 -0.0475594 0.0
0.0226184 -0.0291191 0.0
-0.034908 -0.0485956 0.0
0.0373575 -0.082153 0.0
-0.0706765 -0.01618 0.0
-0.107216 -0.0647257 0.0
-0.0738055 -0.0192742 0.0
-0.0779153 -0.0388442 0.0
-0.0729417 -0.0197637 0.0
-0.0738823 -0.0747172 0.0
-0.0143584 -0.000214459 0.0
-0.0767466 -0.0186396 0.0
-0.093117 -0.019374 0.0
-0.0951493 0.0023744 0.0
-0.109181 0.00427089 0.0
-0.125455 -0.0122899 0.0
-0.131102 0.0330788 0.0
-0.0568634 0.0508451 0.0
0.00175363 0.0243903 0.0
0.0765503 0.028716 0.0
0.219619 0.0312598 0.0
0.467532 0.0177297 0.0
0.741754 -0.0183416 0.0
-0.0576002 0.02168 0.0
-0.0116427 0.0212633 0.0
-0.0302622 0.025504 0.0
-0.0131862 -0.0402788 0.0
0.0124958 -0.0204398 0.0
-0.0188175 -0.0660289 0.0
-0.00566326 -0.0361283 0.0
0.00920586 -0.110288 0.0
0.0309608 -0.076151 0.0
-0.0279778 -0.0649313 0.0
-0.00768568 0.0972265 0.0
-0.0147852 0.00534112 0.0
-0.0498051 -0.0556181 0.0
-0.0721682 0.0242584 0.0
-0.0700931 -0.0233732 0.0
-0.0834531 -0.0326236 0.0
-0.107106 -0.0191262 0.0
-0.0760585 0.0156271 0.0
-0.0738913 -0.00952537 0.0
-0.0554984 -0.0111483 0.0
-0.0802422 -0.0133942 0.0
-0.0945467 -0.00421573 0.0
-0.074152 0.0273844 0.0
-0.0650848 0.0810364 0.0
-0.0613636 0.0217285 0.0
0.00754893 0.0306054 0.0
0.109829 -0.032329 0.0
0.241613 0.0550387 0.0
0.521308 0.0333082 0.0
0.752549 -0.0206132 0.0
-0.0218063 0.037259 0.0
0.00803055 0.0358836 0.0
0.0136573 -0.00953822 0.0
0.00954449 0.00495858 0.0
0.00651764 -0.0306428 0.0
0.0617015 -0.0628582 0.0
0.0474318 -0.115934 0.0
0.0128514 -0.0582848 0.0
-0.0195033 -0.0263683 0.0
-0.0441098 -0.0964867 0.0
-0.0431677 0.0592135 0.0
-0.0308759 -0.0203523 0.0
-0.0417732 -0.115452 0.0
-0.063126 -0.026207 0.0
-0.0883832 -0.0387075 0.0
-0.069996 -0.081091 0.0
-0.0713401 -0.0443255 0.0
-0.0778195 0.00517445 0.0
-0.0226037 -0.0320731 0.0
-0.0220336 -0.0542253 0.0
-0.0595163 -0.0229018 0.0
-0.0689353 0.0163328 0.0
-0.115089 -0.0091723 0.0
-0.122505 0.0570674 0.0
-0.0992313 0.0434228 0.0
-0.0195423 0.0569269 0.0
0.0704711 -0.0174454 0.0
0.255532 0.0208645 0.0
0.576967 0.052961 0.0
0.787817 -0.0125288 0.0
-0.0133871 0.04375 0.0
-0.0155804 0.0366903 0.0
-0.0147578 -0.0262731 0.0
-0.0290428 0.0355402 0.0
0.0251198 0.0369474 0.0
0.0116572 -0.0538413 0.0
-0.0236161 -0.107213 0.0
-0.102744 -0.0622276 0.0
-0.0975734 -0.0198959 0.0
-0.0362293 -0.0734226 0.0
-0.0706826 -0.0205895 0.0
-0.0023157 -0.0244955 0.0
0.00278019 -0.0788952 0.0
0.000718668 -0.0634387 0.0
-0.0308775 -0.0530116 0.0
-0.0939921 -0.0644885 0.0
-0.0347239 -0.0575099 0.0
-0.03284 -0.0178018 0.0
-0.058655 0.00294922 0.0
-0.0662039 -0.0973587 0.0
-0.044086 -0.0492776 0.0
-0.189659 0.00293962 0.0
-0.142612 -0.0155604 0.0
-0.12192 0.014905 0.0
-0.0762666 0.0245181 0.0
-0.000844554 0.0278705 0.0
0.0844578 -0.0400949 0.0
0.241797 0.018059 0.0
0.475609 0.0448851 0.0
0.831497 0.0185768 0.0
-0.0238168 0.00986383 0.0
-0.0135084 0.0108536 0.0
-0.0238062 0.00982744 0.0
0.00631679 -0.00575445 0.0
-0.0860171 -0.0096788 0.0
-0.0710072 -0.0758912 0.0
-0.0586778 0.0205403 0.0
-0.0284308 -0.0649176 0.0
-0.0164627 -0.00199394 0.0
0.00765649 -0.0873785 0.0
-0.0322111 -0.0757456 0.0
-0.0220155 -0.0904044 0.0
-0.0544817 -0.0459931 0.0
-0.0352671 -0.0629042 0.0
-0.0450627 -0.118724 0.0
-0.0334256 -0.0630487 0.0
-0.00555592 -0.0164668 0.0
-0.0573655 -0.0762383 0.0
-0.0320503 -0.0450442 0.0
-0.0441811 -0.0799167 0.0
-0.0907912 -0.0849704 0.0
-0.197639 -0.0427619 0.0
-0.227619 -0.0444261 0.0
-0.096889 -0.00252182 0.0
-0.0977869 0.0046441 0.0
-0.0732056 0.012059 0.0
0.0889826 -0.067975 0.0
0.226076 -0.021533 0.0
0.524268 0.0674346 0.0
0.837819 0.0282363 0.0
-0.0534066 -0.00371732 0.0
-0.0694075 -0.0170351 0.0
-0.00908576 -0.0113111 0.0
-0.0473455 -0.00832071 0.0
-0.0771806 -0.0460514 0.0
-0.0692707 -0.0223185 0.0
-0.0871131 -0.0214597 0.0
-0.0650191 -0.0890893 0.0
0.00405239 -0.0231005 0.0
0.0252097 -0.0180839 0.0
-0.0233109 -0.105883 0.0
-0.102185 -0.0204954 0.0
-0.0734292 -0.0616889 0.0
-0.0515051 -0.0378107 0.0
-0.0274739 -0.0147821 0.0
-0.0800798 -0.0995379 0.0
-0.0617924 -0.0869907 0.0
-0.0358514 -0.0886564 0.0
-0.0382376 -0.0923944 0.0
-0.0105963 -0.110761 0.0
-0.113769 -0.100055 0.0
-0.147766 -0.0583007 0.0
-0.154418 -0.0961292 0.0
-0.109853 -0.107142 0.0
-0.139012 -0.0752417 0.0
-0.0349311 -0.0495541 0.0
0.0652955 -0.0738811 0.0
0.228443 0.00766913 0.0
0.477013 0.0400723 0.0
0.81377 0.0422587 0.0
-0.0597492 0.0105201 0.0
-0.049541 0.035109 0.0
-0.035377 -0.00714296 0.0
-0.0198511 -0.00629626 0.0
-0.0335611 -0.121466 0.0
-0.0328514 0.0131886 0.0
-0.0327709 -0.0180517 0.0
-0.085138 -0.0921385 0.0
-0.0132789 -0.0236484 0.0
-0.0198795 -0.144388 0.0
-0.0460106 -0.0151704 0.0
-0.0965529 -0.0234333 0.0
-0.0998916 -0.0285385 0.0
-0.110263 0.0141254 0.0
-0.0925949 -0.0319266 0.0
-0.0456435 -0.13239 0.0
-0.063341 -0.096839 0.0
-0.0925275 -0.119954 0.0
-0.087443 -0.0935853 0.0
-0.0554581 -0.0861512 0.0
-0.104441 -0.165941 0.0
-0.131911 -0.0940492 0.0
-0.124759 -0.153208 0.0
-0.0982981 -0.180808 0.0
-0.0523087 -0.152964 0.0
-0.0605349 -0.103971 0.0
0.0519648 -0.125393 0.0
0.209266 -0.0257695 0.0
0.475863 0.0302667 0.0
0.809004 0.0561511 0.0
-0.0803802 0.0377161 0.0
-0.073363 0.0554744 0.0
-0.0579355 -0.0256362 0.0
-0.0211138 -0.00447963 0.0
-0.0327301 -0.0755441 0.0
-0.0631425 -0.0185761 0.0
-0.0164755 -0.0827682 0.0
-0.0106834 -0.0498034 0.0
0.0116006 -0.0651872 0.0
0.0132578 -0.118661 0.0
-0.0179511 -0.0522893 0.0
-0.0402508 -0.0501739 0.0
-0.0760393 -0.0483589 0.0
-0.0952167 -0.0184749 0.0
-0.0718404 -0.0695284 0.0
-0.0618025 -0.114884 0.0
-0.09062 -0.115927 0.0
-0.156784 -0.124902 0.0
-0.0439337 -0.088472 0.0
-0.11734 -0.109263 0.0
-0.154369 -0.172121 0.0
-0.0819317 -0.113843 0.0
-0.111451 -0.116555 0.0
-0.156597 -0.217355 0.0
-0.0725677 -0.153891 0.0
-0.0294986 -0.132102 0.0
-0.0166969 -0.152774 0.0
0.202373 -0.0585957 0.0
0.422073 -0.0137778 0.0
0.814993 0.0241932 0.0
-0.0595887 0.00694595 0.0
-0.0830259 0.0493153 0.0
-0.0568808 0.0144987 0.0
-0.0658035 -0.0201068 0.0
-0.0909133 -0.0465413 0.0
-0.0571724 0.0341538 0.0
-0.0448884 -0.048965 0.0
0.0132846 -0.060017 0.0
0.0149505 -0.0667863 0.0
-0.0347345 -0.0886242 0.0
-0.0220614 -0.0520755 0.0
-0.0616345 -0.0809949 0.0
-0.0623315 -0.0591949 0.0
-0.0431851 -0.0799033 0.0
-0.045071 -0.0780763 0.0
-0.0628498 -0.0600296 0.0
-0.106559 -0.0955159 0.0
-0.0533054 -0.141674 0.0
-0.0733705 -0.138466 0.0
-0.119804 -0.125658 0.0
-0.0881913 -0.0924707 0.0
-0.0207242 -0.125631 0.0
-0.0439857 -0.109211 0.0
-0.088465 -0.128791 0.0
-0.116085 -0.186495 0.0