# vtk DataFile Version 3.0
Malha 2D com triângulos e temperatura
ASCII
DATASET UNSTRUCTURED_GRID

POINTS 1800 double
0 0 0
0.1 0 0
0.1 0.02 0
0 0.02 0
0.00169492 0 0
0.00338983 0 0
0.00508475 0 0
0.00677966 0 0
0.00847458 0 0
0.0101695 0 0
0.0118644 0 0
0.0135593 0 0
0.0152542 0 0
0.0169492 0 0
0.0186441 0 0
0.020339 0 0
0.0220339 0 0
0.0237288 0 0
0.0254237 0 0
0.0271186 0 0
0.0288136 0 0
0.0305085 0 0
0.0322034 0 0
0.0338983 0 0
0.0355932 0 0
0.0372881 0 0
0.0389831 0 0
0.040678 0 0
0.0423729 0 0
0.0440678 0 0
0.0457627 0 0
0.0474576 0 0
0.0491525 0 0
0.0508475 0 0
0.0525424 0 0
0.0542373 0 0
0.0559322 0 0
0.0576271 0 0
0.059322 0 0
0.0610169 0 0
0.0627119 0 0
0.0644068 0 0
0.0661017 0 0
0.0677966 0 0
0.0694915 0 0
0.0711864 0 0
0.0728814 0 0
0.0745763 0 0
0.0762712 0 0
0.0779661 0 0
0.079661 0 0
0.0813559 0 0
0.0830508 0 0
0.0847458 0 0
0.0864407 0 0
0.0881356 0 0
0.0898305 0 0
0.0915254 0 0
0.0932203 0 0
0.0949153 0 0
0.0966102 0 0
0.0983051 0 0
0.1 0.000689655 0
0.1 0.00137931 0
0.1 0.00206897 0
0.1 0.00275862 0
0.1 0.00344828 0
0.1 0.00413793 0
0.1 0.00482759 0
0.1 0.00551724 0
0.1 0.0062069 0
0.1 0.00689655 0
0.1 0.00758621 0
0.1 0.00827586 0
0.1 0.00896552 0
0.1 0.00965517 0
0.1 0.0103448 0
0.1 0.0110345 0
0.1 0.0117241 0
0.1 0.0124138 0
0.1 0.0131034 0
0.1 0.0137931 0
0.1 0.0144828 0
0.1 0.0151724 0
0.1 0.0158621 0
0.1 0.0165517 0
0.1 0.0172414 0
0.1 0.017931 0
0.1 0.0186207 0
0.1 0.0193103 0
0.0983051 0.02 0
0.0966102 0.02 0
0.0949153 0.02 0
0.0932203 0.02 0
0.0915254 0.02 0
0.0898305 0.02 0
0.0881356 0.02 0
0.0864407 0.02 0
0.0847458 0.02 0
0.0830508 0.02 0
0.0813559 0.02 0
0.079661 0.02 0
0.0779661 0.02 0
0.0762712 0.02 0
0.0745763 0.02 0
0.0728814 0.02 0
0.0711864 0.02 0
0.0694915 0.02 0
0.0677966 0.02 0
0.0661017 0.02 0
0.0644068 0.02 0
0.0627119 0.02 0
0.0610169 0.02 0
0.059322 0.02 0
0.0576271 0.02 0
0.0559322 0.02 0
0.0542373 0.02 0
0.0525424 0.02 0
0.0508475 0.02 0
0.0491525 0.02 0
0.0474576 0.02 0
0.0457627 0.02 0
0.0440678 0.02 0
0.0423729 0.02 0
0.040678 0.02 0
0.0389831 0.02 0
0.0372881 0.02 0
0.0355932 0.02 0
0.0338983 0.02 0
0.0322034 0.02 0
0.0305085 0.02 0
0.0288136 0.02 0
0.0271186 0.02 0
0.0254237 0.02 0
0.0237288 0.02 0
0.0220339 0.02 0
0.020339 0.02 0
0.0186441 0.02 0
0.0169492 0.02 0
0.0152542 0.02 0
0.0135593 0.02 0
0.0118644 0.02 0
0.0101695 0.02 0
0.00847458 0.02 0
0.00677966 0.02 0
0.00508475 0.02 0
0.00338983 0.02 0
0.00169492 0.02 0
0 0.0193103 0
0 0.0186207 0
0 0.017931 0
0 0.0172414 0
0 0.0165517 0
0 0.0158621 0
0 0.0151724 0
0 0.0144828 0
0 0.0137931 0
0 0.0131034 0
0 0.0124138 0
0 0.0117241 0
0 0.0110345 0
0 0.0103448 0
0 0.00965517 0
0 0.00896552 0
0 0.00827586 0
0 0.00758621 0
0 0.00689655 0
0 0.0062069 0
0 0.00551724 0
0 0.00482759 0
0 0.00413793 0
0 0.00344828 0
0 0.00275862 0
0 0.00206897 0
0 0.00137931 0
0 0.000689655 0
0.00169492 0.000689655 0
0.00169492 0.00137931 0
0.00169492 0.00206897 0
0.00169492 0.00275862 0
0.00169492 0.00344828 0
0.00169492 0.00413793 0
0.00169492 0.00482759 0
0.00169492 0.00551724 0
0.00169492 0.0062069 0
0.00169492 0.00689655 0
0.00169492 0.00758621 0
0.00169492 0.00827586 0
0.00169492 0.00896552 0
0.00169492 0.00965517 0
0.00169492 0.0103448 0
0.00169492 0.0110345 0
0.00169492 0.0117241 0
0.00169492 0.0124138 0
0.00169492 0.0131034 0
0.00169492 0.0137931 0
0.00169492 0.0144828 0
0.00169492 0.0151724 0
0.00169492 0.0158621 0
0.00169492 0.0165517 0
0.00169492 0.0172414 0
0.00169492 0.017931 0
0.00169492 0.0186207 0
0.00169492 0.0193103 0
0.00338983 0.000689655 0
0.00338983 0.00137931 0
0.00338983 0.00206897 0
0.00338983 0.00275862 0
0.00338983 0.00344828 0
0.00338983 0.00413793 0
0.00338983 0.00482759 0
0.00338983 0.00551724 0
0.00338983 0.0062069 0
0.00338983 0.00689655 0
0.00338983 0.00758621 0
0.00338983 0.00827586 0
0.00338983 0.00896552 0
0.00338983 0.00965517 0
0.00338983 0.0103448 0
0.00338983 0.0110345 0
0.00338983 0.0117241 0
0.00338983 0.0124138 0
0.00338983 0.0131034 0
0.00338983 0.0137931 0
0.00338983 0.0144828 0
0.00338983 0.0151724 0
0.00338983 0.0158621 0
0.00338983 0.0165517 0
0.00338983 0.0172414 0
0.00338983 0.017931 0
0.00338983 0.0186207 0
0.00338983 0.0193103 0
0.00508475 0.000689655 0
0.00508475 0.00137931 0
0.00508475 0.00206897 0
0.00508475 0.00275862 0
0.00508475 0.00344828 0
0.00508475 0.00413793 0
0.00508475 0.00482759 0
0.00508475 0.00551724 0
0.00508475 0.0062069 0
0.00508475 0.00689655 0
0.00508475 0.00758621 0
0.00508475 0.00827586 0
0.00508475 0.00896552 0
0.00508475 0.00965517 0
0.00508475 0.0103448 0
0.00508475 0.0110345 0
0.00508475 0.0117241 0
0.00508475 0.0124138 0
0.00508475 0.0131034 0
0.00508475 0.0137931 0
0.00508475 0.0144828 0
0.00508475 0.0151724 0
0.00508475 0.0158621 0
0.00508475 0.0165517 0
0.00508475 0.0172414 0
0.00508475 0.017931 0
0.00508475 0.0186207 0
0.00508475 0.0193103 0
0.00677966 0.000689655 0
0.00677966 0.00137931 0
0.00677966 0.00206897 0
0.00677966 0.00275862 0
0.00677966 0.00344828 0
0.00677966 0.00413793 0
0.00677966 0.00482759 0
0.00677966 0.00551724 0
0.00677966 0.0062069 0
0.00677966 0.00689655 0
0.00677966 0.00758621 0
0.00677966 0.00827586 0
0.00677966 0.00896552 0
0.00677966 0.00965517 0
0.00677966 0.0103448 0
0.00677966 0.0110345 0
0.00677966 0.0117241 0
0.00677966 0.0124138 0
0.00677966 0.0131034 0
0.00677966 0.0137931 0
0.00677966 0.0144828 0
0.00677966 0.0151724 0
0.00677966 0.0158621 0
0.00677966 0.0165517 0
0.00677966 0.0172414 0
0.00677966 0.017931 0
0.00677966 0.0186207 0
0.00677966 0.0193103 0
0.00847458 0.000689655 0
0.00847458 0.00137931 0
0.00847458 0.00206897 0
0.00847458 0.00275862 0
0.00847458 0.00344828 0
0.00847458 0.00413793 0
0.00847458 0.00482759 0
0.00847458 0.00551724 0
0.00847458 0.0062069 0
0.00847458 0.00689655 0
0.00847458 0.00758621 0
0.00847458 0.00827586 0
0.00847458 0.00896552 0
0.00847458 0.00965517 0
0.00847458 0.0103448 0
0.00847458 0.0110345 0
0.00847458 0.0117241 0
0.00847458 0.0124138 0
0.00847458 0.0131034 0
0.00847458 0.0137931 0
0.00847458 0.0144828 0
0.00847458 0.0151724 0
0.00847458 0.0158621 0
0.00847458 0.0165517 0
0.00847458 0.0172414 0
0.00847458 0.017931 0
0.00847458 0.0186207 0
0.00847458 0.0193103 0
0.0101695 0.000689655 0
0.0101695 0.00137931 0
0.0101695 0.00206897 0
0.0101695 0.00275862 0
0.0101695 0.00344828 0
0.0101695 0.00413793 0
0.0101695 0.00482759 0
0.0101695 0.00551724 0
0.0101695 0.0062069 0
0.0101695 0.00689655 0
0.0101695 0.00758621 0
0.0101695 0.00827586 0
0.0101695 0.00896552 0
0.0101695 0.00965517 0
0.0101695 0.0103448 0
0.0101695 0.0110345 0
0.0101695 0.0117241 0
0.0101695 0.0124138 0
0.0101695 0.0131034 0
0.0101695 0.0137931 0
0.0101695 0.0144828 0
0.0101695 0.0151724 0
0.0101695 0.0158621 0
0.0101695 0.0165517 0
0.0101695 0.0172414 0
0.0101695 0.017931 0
0.0101695 0.0186207 0
0.0101695 0.0193103 0
0.0118644 0.000689655 0
0.0118644 0.00137931 0
0.0118644 0.00206897 0
0.0118644 0.00275862 0
0.0118644 0.00344828 0
0.0118644 0.00413793 0
0.0118644 0.00482759 0
0.0118644 0.00551724 0
0.0118644 0.0062069 0
0.0118644 0.00689655 0
0.0118644 0.00758621 0
0.0118644 0.00827586 0
0.0118644 0.00896552 0
0.0118644 0.00965517 0
0.0118644 0.0103448 0
0.0118644 0.0110345 0
0.0118644 0.0117241 0
0.0118644 0.0124138 0
0.0118644 0.0131034 0
0.0118644 0.0137931 0
0.0118644 0.0144828 0
0.0118644 0.0151724 0
0.0118644 0.0158621 0
0.0118644 0.0165517 0
0.0118644 0.0172414 0
0.0118644 0.017931 0
0.0118644 0.0186207 0
0.0118644 0.0193103 0
0.0135593 0.000689655 0
0.0135593 0.00137931 0
0.0135593 0.00206897 0
0.0135593 0.00275862 0
0.0135593 0.00344828 0
0.0135593 0.00413793 0
0.0135593 0.00482759 0
0.0135593 0.00551724 0
0.0135593 0.0062069 0
0.0135593 0.00689655 0
0.0135593 0.00758621 0
0.0135593 0.00827586 0
0.0135593 0.00896552 0
0.0135593 0.00965517 0
0.0135593 0.0103448 0
0.0135593 0.0110345 0
0.0135593 0.0117241 0
0.0135593 0.0124138 0
0.0135593 0.0131034 0
0.0135593 0.0137931 0
0.0135593 0.0144828 0
0.0135593 0.0151724 0
0.0135593 0.0158621 0
0.0135593 0.0165517 0
0.0135593 0.0172414 0
0.0135593 0.017931 0
0.0135593 0.0186207 0
0.0135593 0.0193103 0
0.0152542 0.000689655 0
0.0152542 0.00137931 0
0.0152542 0.00206897 0
0.0152542 0.00275862 0
0.0152542 0.00344828 0
0.0152542 0.00413793 0
0.0152542 0.00482759 0
0.0152542 0.00551724 0
0.0152542 0.0062069 0
0.0152542 0.00689655 0
0.0152542 0.00758621 0
0.0152542 0.00827586 0
0.0152542 0.00896552 0
0.0152542 0.00965517 0
0.0152542 0.0103448 0
0.0152542 0.0110345 0
0.0152542 0.0117241 0
0.0152542 0.0124138 0
0.0152542 0.0131034 0
0.0152542 0.0137931 0
0.0152542 0.0144828 0
0.0152542 0.0151724 0
0.0152542 0.0158621 0
0.0152542 0.0165517 0
0.0152542 0.0172414 0
0.0152542 0.017931 0
0.0152542 0.0186207 0
0.0152542 0.0193103 0
0.0169492 0.000689655 0
0.0169492 0.00137931 0
0.0169492 0.00206897 0
0.0169492 0.00275862 0
0.0169492 0.00344828 0
0.0169492 0.00413793 0
0.0169492 0.00482759 0
0.0169492 0.00551724 0
0.0169492 0.0062069 0
0.0169492 0.00689655 0
0.0169492 0.00758621 0
0.0169492 0.00827586 0
0.0169492 0.00896552 0
0.0169492 0.00965517 0
0.0169492 0.0103448 0
0.0169492 0.0110345 0
0.0169492 0.0117241 0
0.0169492 0.0124138 0
0.0169492 0.0131034 0
0.0169492 0.0137931 0
0.0169492 0.0144828 0
0.0169492 0.0151724 0
0.0169492 0.0158621 0
0.0169492 0.0165517 0
0.0169492 0.0172414 0
0.0169492 0.017931 0
0.0169492 0.0186207 0
0.0169492 0.0193103 0
0.0186441 0.000689655 0
0.0186441 0.00137931 0
0.0186441 0.00206897 0
0.0186441 0.00275862 0
0.0186441 0.00344828 0
0.0186441 0.00413793 0
0.0186441 0.00482759 0
0.0186441 0.00551724 0
0.0186441 0.0062069 0
0.0186441 0.00689655 0
0.0186441 0.00758621 0
0.0186441 0.00827586 0
0.0186441 0.00896552 0
0.0186441 0.00965517 0
0.0186441 0.0103448 0
0.0186441 0.0110345 0
0.0186441 0.0117241 0
0.0186441 0.0124138 0
0.0186441 0.0131034 0
0.0186441 0.0137931 0
0.0186441 0.0144828 0
0.0186441 0.0151724 0
0.0186441 0.0158621 0
0.0186441 0.0165517 0
0.0186441 0.0172414 0
0.0186441 0.017931 0
0.0186441 0.0186207 0
0.0186441 0.0193103 0
0.020339 0.000689655 0
0.020339 0.00137931 0
0.020339 0.00206897 0
0.020339 0.00275862 0
0.020339 0.00344828 0
[...]
CELL_DATA 1711
VECTORS velocity double
-0.000182274 3.96894e-05 0.0
-0.000432745 0.000207809 0.0
-0.000480553 0.00036577 0.0
-0.000447294 0.000407825 0.0
-0.00038311 0.000283374 0.0
-0.000294946 -2.75989e-05 0.0
-0.00015472 -0.000551412 0.0
0.000105421 -0.00134937 0.0
0.000611763 -0.00255258 0.0
0.00159105 -0.00439562 0.0
0.0034512 -0.00720582 0.0
0.00693229 -0.0116317 0.0
0.0135302 -0.020051 0.0
0.026768 -0.0344696 0.0
0.0532884 -0.0350738 0.0
0.0665648 -0.0219433 0.0
0.0732986 -0.0149025 0.0
0.0770366 -0.0120292 0.0
0.079304 -0.0110464 0.0
0.0808798 -0.0114107 0.0
0.0822154 -0.0129068 0.0
0.0835708 -0.0154097 0.0
0.0850591 -0.0188684 0.0
0.0866076 -0.0232091 0.0
0.0877929 -0.0281403 0.0
0.0874289 -0.0329617 0.0
0.0827035 -0.0368184 0.0
0.0674175 -0.0365684 0.0
0.0266074 -0.0122553 0.0
-0.00027671 8.54257e-06 0.0
-0.000370101 -0.000209691 0.0
7.52088e-05 -0.000884253 0.0
0.000782598 -0.00200234 0.0
0.00161406 -0.00357029 0.0
0.00253996 -0.005596 0.0
0.0036289 -0.00808238 0.0
0.00505042 -0.0110416 0.0
0.00709005 -0.0145031 0.0
0.0101787 -0.0185067 0.0
0.0149257 -0.0230663 0.0
0.0221214 -0.0281572 0.0
0.032792 -0.0337788 0.0
0.0485395 -0.0391974 0.0
0.0698169 -0.0408801 0.0
0.0858257 -0.0388524 0.0
0.0970355 -0.0366901 0.0
0.10507 -0.035151 0.0
0.110971 -0.0342332 0.0
0.115522 -0.0339175 0.0
0.119272 -0.0340811 0.0
0.122496 -0.0344832 0.0
0.125139 -0.0347695 0.0
0.126708 -0.0344479 0.0
0.126033 -0.0328598 0.0
0.120858 -0.0291747 0.0
0.107235 -0.0225394 0.0
0.078852 -0.0128161 0.0
0.0250447 -0.00233941 0.0
0.000213575 -1.29724e-05 0.0
0.00180646 -0.000569909 0.0
0.00382513 -0.00198233 0.0
0.00603301 -0.00407004 0.0
0.00830601 -0.006758 0.0
0.0106173 -0.01001 0.0
0.0130297 -0.0137872 0.0
0.0156868 -0.0180483 0.0
0.0188011 -0.0227434 0.0
0.0226408 -0.0277947 0.0
0.0275055 -0.0330663 0.0
0.0336787 -0.038329 0.0
0.0413651 -0.0431959 0.0
0.0506224 -0.0469732 0.0
0.0609558 -0.0487833 0.0
0.0705024 -0.0486205 0.0
0.0787357 -0.047344 0.0
0.0856445 -0.0456052 0.0
0.0913122 -0.0437135 0.0
0.0958259 -0.0417711 0.0
0.099184 -0.0397238 0.0
0.101213 -0.0373865 0.0
0.101505 -0.0344749 0.0
0.0993647 -0.03065 0.0
0.093768 -0.0255941 0.0
0.0833654 -0.0191402 0.0
0.0665861 -0.011562 0.0
0.0420182 -0.00431061 0.0
0.00940287 -0.000327953 0.0
0.000896551 -1.51671e-05 0.0
0.00471227 -0.000644314 0.0
0.00862131 -0.00222364 0.0
0.0124698 -0.00449774 0.0
0.0161808 -0.00733694 0.0
0.0197552 -0.0106545 0.0
0.0232675 -0.0143605 0.0
0.0268524 -0.0183614 0.0
0.0306866 -0.0225545 0.0
0.0349655 -0.026817 0.0
0.0398739 -0.0309939 0.0
0.0455498 -0.0348897 0.0
0.0520406 -0.0382598 0.0
0.0592443 -0.0408073 0.0
0.0668185 -0.0422643 0.0
0.0742008 -0.0426031 0.0
0.0809907 -0.0420326 0.0
0.0869638 -0.0407778 0.0
0.0919673 -0.0389907 0.0
0.0958457 -0.0367482 0.0
0.0983798 -0.0340588 0.0
0.0992401 -0.0308764 0.0
0.0979575 -0.0271286 0.0
0.093919 -0.0227601 0.0
0.086393 -0.0177942 0.0
0.074596 -0.0124025 0.0
0.0578076 -0.00697798 0.0
0.0355706 -0.00235166 0.0
0.00803091 -0.000127037 0.0
0.00156294 -1.36095e-05 0.0
0.0075599 -0.000587782 0.0
0.0132684 -0.00203041 0.0
0.0185886 -0.00408992 0.0
0.0234764 -0.006629 0.0
0.0279508 -0.00954529 0.0
0.03209 -0.012734 0.0
0.0360168 -0.0160893 0.0
0.0398793 -0.019503 0.0
0.0438275 -0.0228589 0.0
0.0479908 -0.0260291 0.0
0.0524556 -0.0288738 0.0
0.0572461 -0.031245 0.0
0.0623062 -0.0329986 0.0
0.0674853 -0.0340258 0.0
0.0725594 -0.0342959 0.0
0.0773056 -0.0338542 0.0
0.081518 -0.0327755 0.0
0.0849858 -0.0311302 0.0
0.0874674 -0.0289721 0.0
0.0886674 -0.0263364 0.0
0.0882232 -0.0232487 0.0
0.085706 -0.0197418 0.0
0.0806447 -0.0158825 0.0
0.0725743 -0.0118031 0.0
0.0611109 -0.00773109 0.0
0.0460461 -0.0040098 0.0
0.0274569 -0.00117171 0.0
0.00587329 -1.90611e-05 0.0
0.0021111 -7.84597e-06 0.0
0.0099442 -0.000457757 0.0
0.0171686 -0.00160958 0.0
0.0237092 -0.00325748 0.0
0.0295401 -0.0052818 0.0
0.0346949 -0.00758685 0.0
0.0392617 -0.0100749 0.0
0.0433683 -0.0126501 0.0
0.0471617 -0.0152188 0.0
0.0507865 -0.0176883 0.0
0.0543656 -0.0199663 0.0
0.0579851 -0.0219611 0.0
0.0616833 -0.0235856 0.0
0.0654448 -0.024763 0.0
0.0691996 -0.0254376 0.0
0.0728317 -0.025584 0.0
0.076194 -0.0252072 0.0
0.0791141 -0.0243314 0.0
0.0813878 -0.02299 0.0
0.0827704 -0.0212204 0.0
0.08297 -0.019064 0.0
0.0816491 -0.0165703 0.0
0.0784379 -0.0138061 0.0
0.0729652 -0.0108663 0.0
0.0649053 -0.00788636 0.0
0.0540365 -0.00504808 0.0
0.0403013 -0.00257288 0.0
0.0238559 -0.000748681 0.0
0.005119 -1.50384e-05 0.0
0.00251593 -4.72774e-06 0.0
0.0117499 -0.000340194 0.0
0.0201428 -0.00120866 0.0
0.0276155 -0.0024551 0.0
0.0341436 -0.00398593 0.0
0.0397666 -0.00572245 0.0
0.0445805 -0.00758374 0.0
0.0487217 -0.0094912 0.0
0.0523454 -0.0113704 0.0
0.0556044 -0.0131512 0.0
0.0586311 -0.0147674 0.0
0.061525 -0.0161581 0.0
0.0643454 -0.0172689 0.0
0.0671085 -0.0180543 0.0
0.0697874 -0.0184813 0.0
0.0723152 -0.0185319 0.0
0.0745879 -0.0182032 0.0
0.0764651 -0.0175047 0.0
0.0777666 -0.0164561 0.0
0.0782696 -0.0150861 0.0
0.0777084 -0.0134327 0.0
0.0757818 -0.0115456 0.0
0.0721713 -0.00949045 0.0
0.0665719 -0.00735246 0.0
0.0587342 -0.00524047 0.0
0.0485128 -0.00328548 0.0
0.0359106 -0.00163239 0.0
0.021108 -0.000454746 0.0
0.00448978 -3.53153e-06 0.0
0.00280866 -2.2094e-06 0.0
0.0130766 -0.000241582 0.0
0.0223422 -0.000870569 0.0
0.030513 -0.00177856 0.0
0.0375597 -0.00289623 0.0
0.0435228 -0.00416314 0.0
0.0485042 -0.00551654 0.0
0.0526495 -0.00689569 0.0
0.056125 -0.00824405 0.0
0.0590955 -0.00950974 0.0
0.0617066 -0.0106458 0.0
0.0640728 -0.0116109 0.0
0.0662708 -0.0123693 0.0
0.0683379 -0.0128927 0.0
0.0702719 -0.0131602 0.0
0.0720324 -0.0131601 0.0
0.0735411 -0.0128893 0.0
0.0746812 -0.0123534 0.0
0.0752951 -0.0115665 0.0
0.075183 -0.0105508 0.0
0.0741056 -0.00933747 0.0
0.0717924 -0.0079681 0.0
0.067961 -0.0064959 0.0
0.0623459 -0.00498705 0.0
0.0547364 -0.00352104 0.0
0.0450179 -0.00218759 0.0
0.0332074 -0.00107912 0.0
0.0194723 -0.00029969 0.0
0.00414274 -2.45043e-06 0.0
0.00301222 -9.68129e-07 0.0
0.014017 -0.000169299 0.0
0.0239137 -0.000616373 0.0
0.0325919 -0.00126532 0.0
0.0400136 -0.00206664 0.0
0.0462172 -0.00297583 0.0
0.0513081 -0.00394605 0.0
0.0554394 -0.00493186 0.0
0.0587872 -0.00589127 0.0
0.0615279 -0.00678636 0.0
0.0638193 -0.00758361 0.0
0.0657889 -0.00825417 0.0
0.0675277 -0.00877409 0.0
0.0690879 -0.00912459 0.0
0.0704838 -0.00929232 0.0
0.0716919 -0.00926971 0.0
0.0726516 -0.00905512 0.0
0.0732635 -0.00865298 0.0
0.0733882 -0.00807394 0.0
0.0728451 -0.00733521 0.0
0.0714159 -0.00646111 0.0
0.0688532 -0.00548363 0.0
0.0648989 -0.00444294 0.0
0.0593117 -0.00338753 0.0
0.0519015 -0.0023736 0.0
0.0425675 -0.00146224 0.0
0.0313284 -0.000713922 0.0
0.018339 -0.000194786 0.0
0.0038976 -5.25493e-07 0.0
0.00315345 -2.21384e-07 0.0
0.0146783 -0.000116882 0.0
0.0250263 -0.00043032 0.0
0.0340705 -0.000888117 0.0
0.0417637 -0.00145565 0.0
0.0481408 -0.00210092 0.0
0.0533091 -0.0027898 0.0
0.057427 -0.00348899 0.0
0.0606786 -0.00416778 0.0
0.0632494 -0.00479863 0.0
0.0653073 -0.00535753 0.0
0.0669903 -0.00582419 0.0
0.0684 -0.00618209 0.0
0.0695998 -0.00641855 0.0
0.0706149 -0.0065248 0.0
0.0714339 -0.00649612 0.0
0.0720082 -0.0063319 0.0
0.072251 -0.00603587 0.0
0.0720363 -0.00561628 0.0
0.0711979 -0.00508624 0.0
0.0695326 -0.004464 0.0
0.0668093 -0.00377331 0.0
0.0627859 -0.00304346 0.0
0.0572357 -0.00230908 0.0
0.0499803 -0.0016094 0.0
0.040924 -0.000985938 0.0
0.0300829 -0.000478526 0.0
0.0175986 -0.000129537 0.0
0.00374203 -2.52941e-08 0.0
0.00324993 1.53478e-07 0.0
0.0151371 -7.99951e-05 0.0
0.0258041 -0.000297744 0.0
0.0351094 -0.00061787 0.0
0.0429973 -0.00101653 0.0
0.049499 -0.00147113 0.0
0.0547223 -0.00195716 0.0
0.0588291 -0.00245054 0.0
0.0620094 -0.00292902 0.0
0.0644557 -0.00337271 0.0
0.0663439 -0.00376438 0.0
0.0678199 -0.00408965 0.0
0.0689932 -0.00433698 0.0
0.0699353 -0.00449767 0.0
0.0706797 -0.00456587 0.0
0.0712233 -0.00453863 0.0
0.071526 -0.00441592 0.0
0.0715104 -0.00420084 0.0
0.0710599 -0.00389971 0.0
0.0700187 -0.00352233 0.0
0.0681945 -0.00308219 0.0
0.065367 -0.00259654 0.0
0.061305 -0.00208644 0.0
0.0557909 -0.00157636 0.0
0.0486526 -0.00109357 0.0
0.0397964 -0.000666402 0.0
0.0292345 -0.000321362 0.0
0.0170974 -8.60426e-05 0.0
0.00363725 2.94429e-07 0.0
0.00331542 3.26269e-07 0.0
0.0154531 -5.42869e-05 0.0
0.026344 -0.000204415 0.0
0.0358347 -0.000426705 0.0
0.043862 -0.000704948 0.0
0.0504536 -0.00102338 0.0
0.0557168 -0.00136458 0.0
0.0598161 -0.00171132 0.0
0.0629453 -0.00204757 0.0
0.0653026 -0.00235902 0.0
0.0670693 -0.00263334 0.0
0.0683973 -0.00286027 0.0
0.0694023 -0.0030317 0.0
0.0701615 -0.00314159 0.0
0.0707144 -0.00318599 0.0
0.0710639 -0.00316303 0.0
0.0711762 -0.00307296 0.0
0.0709803 -0.00291825 0.0
0.0703664 -0.00270368 0.0
0.0691861 -0.00243648 0.0
0.0672545 -0.00212648 0.0
0.0643591 -0.00178612 0.0
0.0602756 -0.00143041 0.0
0.0547922 -0.00107658 0.0
0.0477404 -0.000743589 0.0
0.0390269 -0.000450816 0.0
0.0286597 -0.000215998 0.0
0.016761 -5.71716e-05 0.0
0.003568 4.25046e-07 0.0
0.00335947 3.87811e-07 0.0
0.0156692 -3.65182e-05 0.0
0.0267163 -0.000139296 0.0
0.0363379 -0.000292684 0.0
0.0444647 -0.000485796 0.0
0.0511211 -0.000707737 0.0
0.0564137 -0.000946246 0.0
0.0605083 -0.00118905 0.0
0.0636019 -0.00142468 0.0
0.065896 -0.00164288 0.0
0.0675764 -0.00183481 0.0
0.0687994 -0.00199318 0.0
0.069685 -0.00211224 0.0
0.0703148 -0.00218776 0.0
0.0707326 -0.00221705 0.0
0.0709456 -0.00219892 0.0
0.0709244 -0.00213368 0.0
0.0706027 -0.00202325 0.0
0.0698756 -0.0018712 0.0
0.0685997 -0.00168282 0.0
0.0665956 -0.00146521 0.0
0.0636557 -0.00122729 0.0
0.0595605 -0.000979723 0.0
0.054102 -0.000734631 0.0
0.0471135 -0.000505192 0.0
0.0385013 -0.000304685 0.0
0.0282702 -0.000144997 0.0
0.016535 -3.79082e-05 0.0
0.00352219 4.4738e-07 0.0
0.00338883 3.86999e-07 0.0
0.0158159 -2.43406e-05 0.0
0.0269714 -9.42126e-05 0.0
0.0366851 -0.000199421 0.0
0.0448827 -0.000332747 0.0
0.0515859 -0.000486728 0.0
0.0569002 -0.000652785 0.0
0.0609924 -0.000822229 0.0
0.0640612 -0.000986893 0.0
0.066311 -0.00113944 0.0
0.0679306 -0.00127357 0.0
0.0690795 -0.00138405 0.0
0.0698807 -0.00146682 0.0
0.0704192 -0.00151891 0.0
0.0707419 -0.00153846 0.0
0.070859 -0.00152468 0.0
0.0707444 -0.0014779 0.0
0.070335 -0.00139957 0.0
0.0695295 -0.0012923 0.0
0.068188 -0.00115995 0.0
0.0661346 -0.00100763 0.0
0.0631656 -0.000841715 0.0
0.0590644 -0.000669756 0.0
0.0536254 -0.000500278 0.0
0.046683 -0.000342446 0.0
0.0381428 -0.000205364 0.0
0.0280064 -9.69958e-05 0.0
0.0163834 -2.49967e-05 0.0
0.00349199 4.23889e-07 0.0
0.00340819 3.54796e-07 0.0
0.0159146 -1.60569e-05 0.0
0.0271451 -6.32118e-05 0.0
0.0369234 -0.000134935 0.0
0.0451713 -0.000226503 0.0
0.0519081 -0.000332851 0.0
0.0572386 -0.000448013 0.0
0.0613298 -0.000565865 0.0
0.0643817 -0.000680612 0.0
0.0666008 -0.000787025 0.0
0.0681778 -0.000880594 0.0
0.0692745 -0.000957607 0.0
0.0700165 -0.00101516 0.0
0.0704909 -0.00105117 0.0
0.0707468 -0.00106434 0.0
0.0707967 -0.00105414 0.0
0.0706168 -0.00102086 0.0
0.0701463 -0.000965578 0.0
0.0692864 -0.0008902 0.0
0.0678998 -0.000797511 0.0
0.0658131 -0.000691181 0.0
0.0628249 -0.000575756 0.0
0.058721 -0.000456582 0.0
0.053297 -0.00033965 0.0
0.0463881 -0.000231329 0.0
0.0378989 -0.000137858 0.0
0.0278285 -6.45575e-05 0.0
0.0162823 -1.63605e-05 0.0
0.00347225 3.77523e-07 0.0
0.0034208 3.09323e-07 0.0
0.0159806 -1.04653e-05 0.0
0.0272625 -4.20349e-05 0.0
0.0370859 -9.06129e-05 0.0
0.0453695 -0.000153161 0.0
0.0521305 -0.000226272 0.0
0.0574731 -0.000305818 0.0
0.0615642 -0.000387504 0.0
0.0646049 -0.000467229 0.0
0.0668026 -0.000541274 0.0
0.06835 -0.000606425 0.0
0.0694103 -0.000660034 0.0
0.0701108 -0.00070004 0.0
0.0705401 -0.000724962 0.0
0.0707493 -0.000733892 0.0
0.0707522 -0.000726485 0.0
0.0705267 -0.000702961 0.0
0.0700138 -0.000664113 0.0
0.0691163 -0.000611331 0.0
0.0676987 -0.000546616 0.0
0.0655894 -0.000472595 0.0
0.0625888 -0.000392505 0.0
0.0584839 -0.000310128 0.0
0.0530715 -0.000229667 0.0
0.0461867 -0.00015555 0.0
0.0377335 -9.20413e-05 0.0
0.027709 -4.26789e-05 0.0
0.0162152 -1.06029e-05 0.0
0.00345946 3.22982e-07 0.0
0.0034289 2.60742e-07 0.0
0.0160242 -6.72232e-06 0.0
0.0273412 -2.7667e-05 0.0
0.0371961 -6.03351e-05 0.0
0.0455049 -0.000102812 0.0
0.0522834 -0.000152826 0.0
0.057635 -0.00020754 0.0
0.0617266 -0.000263952 0.0
0.0647598 -0.000319169 0.0
0.066943 -0.000370552 0.0
0.0684697 -0.000415813 0.0
0.0695047 -0.000453067 0.0
0.0701762 -0.000480844 0.0
0.0705741 -0.000498097 0.0
0.0707505 -0.000504186 0.0
0.0707206 -0.000498875 0.0
0.0704634 -0.000482336 0.0
0.0699211 -0.000455147 0.0
0.0689976 -0.000418311 0.0
0.0675587 -0.000373265 0.0
0.0654342 -0.000321886 0.0
0.0624255 -0.000266472 0.0
0.0583206 -0.000209699 0.0
0.052917 -0.000154514 0.0
0.0460497 -0.000103986 0.0
0.0376219 -6.10272e-05 0.0
0.0276291 -2.79713e-05 0.0
0.016171 -6.78276e-06 0.0
0.00345129 2.68843e-07 0.0
0.003434 2.14514e-07 0.0
0.0160527 -4.24008e-06 0.0
0.0273936 -1.79896e-05 0.0
0.0372703 -3.97819e-05 0.0
0.0455969 -6.8442e-05 0.0
0.052388 -0.000102474 0.0
0.0577463 -0.000139937 0.0
0.0618386 -0.000178743 0.0
0.0648669 -0.000216855 0.0
0.0670402 -0.000252405 0.0
0.0685528 -0.000283768 0.0
0.0695702 -0.000309599 0.0
0.0702215 -0.000328856 0.0
0.0705975 -0.000340792 0.0
0.0707512 -0.000344957 0.0
0.0706985 -0.000341189 0.0
0.0704192 -0.000329616 0.0
0.0698564 -0.000310658 0.0
0.068915 -0.000285037 0.0
0.0674617 -0.00025378 0.0
0.0653269 -0.000218227 0.0
0.062313 -0.00018001 0.0
0.0582087 -0.000141016 0.0
0.0528116 -0.00010331 0.0
0.0459568 -6.90168e-05 0.0
0.037547 -4.01145e-05 0.0
0.0275762 -1.81313e-05 0.0
0.0161423 -4.26548e-06 0.0
0.00344616 2.19274e-07 0.0
0.00343714 1.73259e-07 0.0
0.0160711 -2.61145e-06 0.0
0.0274282 -1.15235e-05 0.0
0.0373199 -2.59253e-05 0.0
0.0456591 -4.5122e-05 0.0
0.0524592 -6.81411e-05 0.0
0.0578224 -9.36649e-05 0.0
0.0619157 -0.000120245 0.0
0.0649408 -0.000146452 0.0
0.0671074 -0.000170967 0.0
0.0686103 -0.000192634 0.0
0.0696155 -0.000210501 0.0
0.0702528 -0.000223822 0.0
0.0706137 -0.000232069 0.0
0.0707515 -0.000234923 0.0
0.0706829 -0.000232272 0.0
0.0703884 -0.000224209 0.0
0.0698115 -0.00021104 0.0
0.0688578 -0.000193279 0.0
0.0673945 -0.000171663 0.0
0.0652529 -0.000147144 0.0
0.0622357 -0.000120881 0.0
0.0581321 -9.4203e-05 0.0
0.05274 -6.85544e-05 0.0
0.0458943 -4.54023e-05 0.0
0.037497 -2.60841e-05 0.0
0.0275414 -1.15886e-05 0.0
0.0161237 -2.6215e-06 0.0
0.00344301 1.76028e-07 0.0
0.00343901 1.37918e-07 0.0
0.0160828 -1.5564e-06 0.0
0.0274507 -7.24256e-06 0.0
0.0373527 -1.66545e-05 0.0
0.0457007 -2.9404e-05 0.0
0.0525073 -4.48694e-05 0.0
0.0578743 -6.21614e-05 0.0
0.0619684 -8.02801e-05 0.0
0.0649916 -9.8226e-05 0.0
0.0671537 -0.000115068 0.0
0.06865 -0.000129989 0.0
0.0696468 -0.000142309 0.0
0.0702745 -0.000151501 0.0
0.0706248 -0.000157189 0.0
0.0707517 -0.000159145 0.0
0.0706721 -0.000157292 0.0
0.070367 -0.000151699 0.0
0.0697804 -0.000142584 0.0
0.0688182 -0.000130317 0.0
0.0673482 -0.000115422 0.0
0.0652021 -9.85767e-05 0.0
0.0621828 -8.06007e-05 0.0
0.05808 -6.24308e-05 0.0
0.0526916 -4.50742e-05 0.0
0.0458524 -2.95409e-05 0.0
0.037464 -1.67302e-05 0.0
0.0275188 -7.27215e-06 0.0
0.016112 -1.56005e-06 0.0
0.00344113 1.39513e-07 0.0
0.00344007 1.08494e-07 0.0
0.0160901 -8.83577e-07 0.0
0.0274651 -4.43865e-06 0.0
0.0373742 -1.0506e-05 0.0
0.0457284 -1.8889e-05 0.0
0.0525397 -2.91983e-05 0.0
0.0579095 -4.08389e-05 0.0
0.0620043 -5.31233e-05 0.0
0.0650264 -6.53546e-05 0.0
0.0671855 -7.68775e-05 0.0
0.0686773 -8.71135e-05 0.0
0.0696684 -9.55809e-05 0.0
0.0702894 -0.000101904 0.0
0.0706325 -0.000105816 0.0
0.0707517 -0.000107156 0.0
0.0706646 -0.00010587 0.0
0.0703522 -0.000102006 0.0
0.0697589 -9.57224e-05 0.0
0.068791 -8.72821e-05 0.0
0.0673165 -7.70588e-05 0.0
0.0651673 -6.55337e-05 0.0
0.0621469 -5.32863e-05 0.0
0.0580448 -4.0975e-05 0.0
0.0526591 -2.93008e-05 0.0
0.0458246 -1.89565e-05 0.0
0.0374424 -1.05424e-05 0.0
0.0275044 -4.45212e-06 0.0
0.0161047 -8.84729e-07 0.0
0.00344007 1.09405e-07 0.0
0.00344063 8.45071e-08 0.0
0.0160944 -4.63023e-07 0.0
0.0274742 -2.62589e-06 0.0
0.0373882 -6.47021e-06 0.0
0.0457467 -1.19153e-05 0.0
0.0525613 -1.87242e-05 0.0
0.0579331 -2.65025e-05 0.0
0.0620286 -3.478e-05 0.0
0.06505 -4.30721e-05 0.0
0.0672072 -5.09187e-05 0.0
0.068696 -5.7911e-05 0.0
0.0696832 -6.37078e-05 0.0
0.0702996 -6.80424e-05 0.0
0.0706377 -7.07247e-05 0.0
0.0707518 -7.1641e-05 0.0
0.0706595 -7.07526e-05 0.0
0.0703421 -6.80956e-05 0.0
0.0697442 -6.37816e-05 0.0
0.0687723 -5.79989e-05 0.0
0.0672948 -5.1013e-05 0.0
0.0651436 -4.31651e-05 0.0
0.0621225 -3.48644e-05 0.0
0.0580211 -2.65726e-05 0.0
0.0526375 -1.87766e-05 0.0
0.0458063 -1.19493e-05 0.0
0.0374284 -6.48814e-06 0.0
0.0274953 -2.63218e-06 0.0
0.0161003 -4.63314e-07 0.0
0.00343952 8.50233e-08 0.0
0.00344087 6.52698e-08 0.0
0.0160969 -2.07109e-07 0.0
0.0274797 -1.4728e-06 0.0
0.037397 -3.85398e-06 0.0
0.0457586 -7.33735e-06 0.0
0.0525756 -1.17845e-05 0.0
0.0579489 -1.69368e-05 0.0
0.062045 -2.24745e-05 0.0
0.065066 -2.80616e-05 0.0
0.067222 -3.33761e-05 0.0
0.0687087 -3.81295e-05 0.0
0.0696933 -4.20803e-05 0.0
0.0703067 -4.50393e-05 0.0
0.0706413 -4.68716e-05 0.0
0.0707518 -4.74964e-05 0.0
0.0706559 -4.68865e-05 0.0
0.0703351 -4.50677e-05 0.0
0.0697341 -4.21197e-05 0.0
0.0687596 -3.81764e-05 0.0
0.06728 -3.34264e-05 0.0
0.0651276 -2.81112e-05 0.0
0.0621061 -2.25194e-05 0.0
0.0580052 -1.69741e-05 0.0
0.0526232 -1.18122e-05 0.0
0.0457944 -7.35521e-06 0.0
0.0374195 -3.86325e-06 0.0
0.0274897 -1.47593e-06 0.0
0.0160978 -2.07166e-07 0.0
0.00343927 6.55602e-08 0.0
0.00344094 5.00422e-08 0.0
0.0160983 -5.71866e-08 0.0
0.0274831 -7.54564e-07 0.0
0.0374026 -2.18417e-06 0.0
0.0457662 -4.36929e-06 0.0
0.0525849 -7.2341e-06 0.0
0.0579594 -1.06113e-05 0.0
0.062056 -1.42847e-05 0.0
0.0650768 -1.80226e-05 0.0
0.067232 -2.15996e-05 0.0
0.0687174 -2.4813e-05 0.0
0.0697002 -2.74919e-05 0.0
0.0703114 -2.95023e-05 0.0
0.0706438 -3.07483e-05 0.0
0.0707518 -3.11729e-05 0.0
0.0706535 -3.07565e-05 0.0
0.0703304 -2.95179e-05 0.0
0.0697272 -2.75136e-05 0.0
0.068751 -2.48389e-05 0.0
0.06727 -2.16275e-05 0.0
0.0651168 -1.805e-05 0.0
0.0620951 -1.43097e-05 0.0
0.0579948 -1.0632e-05 0.0
0.0526138 -7.24953e-06 0.0
0.0457867 -4.37924e-06 0.0
0.037414 -2.18933e-06 0.0
0.0274863 -7.56307e-07 0.0
0.0160965 -5.72209e-08 0.0
0.00343921 5.02046e-08 0.0
0.00344091 3.81178e-08 0.0
0.0160989 2.56574e-08 0.0
0.0274849 -3.19734e-07 0.0
0.0374059 -1.13955e-06 0.0
0.045771 -2.47464e-06 0.0
0.0525909 -4.28797e-06 0.0
0.0579663 -6.47321e-06 0.0
0.0620632 -8.88534e-06 0.0
0.065084 -1.1365e-05 0.0
0.0672387 -1.37552e-05 0.0
0.0687232 -1.59134e-05 0.0
0.0697048 -1.77191e-05 0.0
0.0703147 -1.90774e-05 0.0
0.0706454 -1.99204e-05 0.0
0.0707518 -2.02075e-05 0.0
0.0706518 -1.9925e-05 0.0
0.0703271 -1.90863e-05 0.0
0.0697226 -1.77316e-05 0.0
0.0687452 -1.59283e-05 0.0
0.0672633 -1.37713e-05 0.0
0.0651096 -1.13809e-05 0.0
0.0620879 -8.89991e-06 0.0
0.0579879 -6.48538e-06 0.0
0.0526078 -4.29711e-06 0.0
0.0457819 -2.4806e-06 0.0
0.0374107 -1.1427e-06 0.0
0.0274845 -3.20845e-07 0.0
0.0160958 2.55975e-08 0.0
0.00343924 3.82086e-08 0.0
0.00344083 2.88651e-08 0.0
0.0160992 6.69869e-08 0.0
0.0274859 -6.70364e-08 0.0
0.0374078 -5.03423e-07 0.0
0.0457739 -1.28921e-06 0.0
0.0525947 -2.41067e-06 0.0
0.0579707 -3.80176e-06 0.0
0.062068 -5.36602e-06 0.0
0.0650888 -6.99436e-06 0.0
0.0672431 -8.57774e-06 0.0
0.0687271 -1.00162e-05 0.0
0.0697079 -1.12249e-05 0.0
0.0703168 -1.21367e-05 0.0
0.0706465 -1.27035e-05 0.0
0.0707518 -1.28966e-05 0.0
0.0706507 -1.27063e-05 0.0
0.070325 -1.21421e-05 0.0
0.0697195 -1.12325e-05 0.0
0.0687413 -1.00253e-05 0.0
0.0672589 -8.58756e-06 0.0
0.0651048 -7.00415e-06 0.0
0.0620831 -5.37502e-06 0.0
0.0579835 -3.80935e-06 0.0
0.052604 -2.41645e-06 0.0
0.045779 -1.29305e-06 0.0
0.0374087 -5.05519e-07 0.0
0.0274835 -6.78258e-08 0.0
0.0160956 6.69056e-08 0.0
0.00343932 2.89158e-08 0.0
0.00344072 2.17416e-08 0.0
0.0160991 8.33954e-08 0.0
0.0274863 7.06732e-08 0.0
0.0374089 -1.30643e-07 0.0
0.0457757 -5.67288e-07 0.0
0.0525971 -1.23892e-06 0.0
0.0579735 -2.10579e-06 0.0