# vtk DataFile Version 3.0
Malha 2D com triângulos e temperatura
ASCII
DATASET UNSTRUCTURED_GRID

POINTS 3200 double
0 0 0
10 0 0
10 2 0
0 2 0
0.126582 0 0
0.253165 0 0
0.379747 0 0
0.506329 0 0
0.632911 0 0
0.759494 0 0
0.886076 0 0
1.01266 0 0
1.13924 0 0
1.26582 0 0
1.39241 0 0
1.51899 0 0
1.64557 0 0
1.77215 0 0
1.89873 0 0
2.02532 0 0
2.1519 0 0
2.27848 0 0
2.40506 0 0
2.53165 0 0
2.65823 0 0
2.78481 0 0
2.91139 0 0
3.03797 0 0
3.16456 0 0
3.29114 0 0
3.41772 0 0
3.5443 0 0
3.67089 0 0
3.79747 0 0
3.92405 0 0
4.05063 0 0
4.17722 0 0
4.3038 0 0
4.43038 0 0
4.55696 0 0
4.68354 0 0
4.81013 0 0
4.93671 0 0
5.06329 0 0
5.18987 0 0
5.31646 0 0
5.44304 0 0
5.56962 0 0
5.6962 0 0
5.82278 0 0
5.94937 0 0
6.07595 0 0
6.20253 0 0
6.32911 0 0
6.4557 0 0
6.58228 0 0
6.70886 0 0
6.83544 0 0
6.96203 0 0
7.08861 0 0
7.21519 0 0
7.34177 0 0
7.46835 0 0
7.59494 0 0
7.72152 0 0
7.8481 0 0
7.97468 0 0
8.10127 0 0
8.22785 0 0
8.35443 0 0
8.48101 0 0
8.60759 0 0
8.73418 0 0
8.86076 0 0
8.98734 0 0
9.11392 0 0
9.24051 0 0
9.36709 0 0
9.49367 0 0
9.62025 0 0
9.74684 0 0
9.87342 0 0
10 0.0512821 0
10 0.102564 0
10 0.153846 0
10 0.205128 0
10 0.25641 0
10 0.307692 0
10 0.358974 0
10 0.410256 0
10 0.461538 0
10 0.512821 0
10 0.564103 0
10 0.615385 0
10 0.666667 0
10 0.717949 0
10 0.769231 0
10 0.820513 0
10 0.871795 0
10 0.923077 0
10 0.974359 0
10 1.02564 0
10 1.07692 0
10 1.12821 0
10 1.17949 0
10 1.23077 0
10 1.28205 0
10 1.33333 0
10 1.38462 0
10 1.4359 0
10 1.48718 0
10 1.53846 0
10 1.58974 0
10 1.64103 0
10 1.69231 0
10 1.74359 0
10 1.79487 0
10 1.84615 0
10 1.89744 0
10 1.94872 0
9.87342 2 0
9.74684 2 0
9.62025 2 0
9.49367 2 0
9.36709 2 0
9.24051 2 0
9.11392 2 0
8.98734 2 0
8.86076 2 0
8.73418 2 0
8.60759 2 0
8.48101 2 0
8.35443 2 0
8.22785 2 0
8.10127 2 0
7.97468 2 0
7.8481 2 0
7.72152 2 0
7.59494 2 0
7.46835 2 0
7.34177 2 0
7.21519 2 0
7.08861 2 0
6.96203 2 0
6.83544 2 0
6.70886 2 0
6.58228 2 0
6.4557 2 0
6.32911 2 0
6.20253 2 0
6.07595 2 0
5.94937 2 0
5.82278 2 0
5.6962 2 0
5.56962 2 0
5.44304 2 0
5.31646 2 0
5.18987 2 0
5.06329 2 0
4.93671 2 0
4.81013 2 0
4.68354 2 0
4.55696 2 0
4.43038 2 0
4.3038 2 0
4.17722 2 0
4.05063 2 0
3.92405 2 0
3.79747 2 0
3.67089 2 0
3.5443 2 0
3.41772 2 0
3.29114 2 0
3.16456 2 0
3.03797 2 0
2.91139 2 0
2.78481 2 0
2.65823 2 0
2.53165 2 0
2.40506 2 0
2.27848 2 0
2.1519 2 0
2.02532 2 0
1.89873 2 0
1.77215 2 0
1.64557 2 0
1.51899 2 0
1.39241 2 0
1.26582 2 0
1.13924 2 0
1.01266 2 0
0.886076 2 0
0.759494 2 0
0.632911 2 0
0.506329 2 0
0.379747 2 0
0.253165 2 0
0.126582 2 0
0 1.94872 0
0 1.89744 0
0 1.84615 0
0 1.79487 0
0 1.74359 0
0 1.69231 0
0 1.64103 0
0 1.58974 0
0 1.53846 0
0 1.48718 0
0 1.4359 0
0 1.38462 0
0 1.33333 0
0 1.28205 0
0 1.23077 0
0 1.17949 0
0 1.12821 0
0 1.07692 0
0 1.02564 0
0 0.974359 0
0 0.923077 0
0 0.871795 0
0 0.820513 0
0 0.769231 0
0 0.717949 0
0 0.666667 0
0 0.615385 0
0 0.564103 0
0 0.512821 0
0 0.461538 0
0 0.410256 0
0 0.358974 0
0 0.307692 0
0 0.25641 0
0 0.205128 0
0 0.153846 0
0 0.102564 0
0 0.0512821 0
0.126582 1.94872 0
0.253165 1.94872 0
0.379747 1.94872 0
0.506329 1.94872 0
0.632911 1.94872 0
0.759494 1.94872 0
0.886076 1.94872 0
1.01266 1.94872 0
1.13924 1.94872 0
1.26582 1.94872 0
1.39241 1.94872 0
1.51899 1.94872 0
1.64557 1.94872 0
1.77215 1.94872 0
1.89873 1.94872 0
2.02532 1.94872 0
2.1519 1.94872 0
2.27848 1.94872 0
2.40506 1.94872 0
2.53165 1.94872 0
2.65823 1.94872 0
2.78481 1.94872 0
2.91139 1.94872 0
3.03797 1.94872 0
3.16456 1.94872 0
3.29114 1.94872 0
3.41772 1.94872 0
3.5443 1.94872 0
3.67089 1.94872 0
3.79747 1.94872 0
3.92405 1.94872 0
4.05063 1.94872 0
4.17722 1.94872 0
4.3038 1.94872 0
4.43038 1.94872 0
4.55696 1.94872 0
4.68354 1.94872 0
4.81013 1.94872 0
4.93671 1.94872 0
5.06329 1.94872 0
5.18987 1.94872 0
5.31646 1.94872 0
5.44304 1.94872 0
5.56962 1.94872 0
5.6962 1.94872 0
5.82278 1.94872 0
5.94937 1.94872 0
6.07595 1.94872 0
6.20253 1.94872 0
6.32911 1.94872 0
6.4557 1.94872 0
6.58228 1.94872 0
6.70886 1.94872 0
6.83544 1.94872 0
6.96203 1.94872 0
7.08861 1.94872 0
7.21519 1.94872 0
7.34177 1.94872 0
7.46835 1.94872 0
7.59494 1.94872 0
7.72152 1.94872 0
7.8481 1.94872 0
7.97468 1.94872 0
8.10127 1.94872 0
8.22785 1.94872 0
8.35443 1.94872 0
8.48101 1.94872 0
8.60759 1.94872 0
8.73418 1.94872 0
8.86076 1.94872 0
8.98734 1.94872 0
9.11392 1.94872 0
9.24051 1.94872 0
9.36709 1.94872 0
9.49367 1.94872 0
9.62025 1.94872 0
9.74684 1.94872 0
9.87342 1.94872 0
0.126582 1.89744 0
0.253165 1.89744 0
0.379747 1.89744 0
0.506329 1.89744 0
0.632911 1.89744 0
0.759494 1.89744 0
0.886076 1.89744 0
1.01266 1.89744 0
1.13924 1.89744 0
1.26582 1.89744 0
1.39241 1.89744 0
1.51899 1.89744 0
1.64557 1.89744 0
1.77215 1.89744 0
1.89873 1.89744 0
2.02532 1.89744 0
2.1519 1.89744 0
2.27848 1.89744 0
2.40506 1.89744 0
2.53165 1.89744 0
2.65823 1.89744 0
2.78481 1.89744 0
2.91139 1.89744 0
3.03797 1.89744 0
3.16456 1.89744 0
3.29114 1.89744 0
3.41772 1.89744 0
3.5443 1.89744 0
3.67089 1.89744 0
3.79747 1.89744 0
3.92405 1.89744 0
4.05063 1.89744 0
4.17722 1.89744 0
4.3038 1.89744 0
4.43038 1.89744 0
4.55696 1.89744 0
4.68354 1.89744 0
4.81013 1.89744 0
4.93671 1.89744 0
5.06329 1.89744 0
5.18987 1.89744 0
5.31646 1.89744 0
5.44304 1.89744 0
5.56962 1.89744 0
5.6962 1.89744 0
5.82278 1.89744 0
5.94937 1.89744 0
6.07595 1.89744 0
6.20253 1.89744 0
6.32911 1.89744 0
6.4557 1.89744 0
6.58228 1.89744 0
6.70886 1.89744 0
6.83544 1.89744 0
6.96203 1.89744 0
7.08861 1.89744 0
7.21519 1.89744 0
7.34177 1.89744 0
7.46835 1.89744 0
7.59494 1.89744 0
7.72152 1.89744 0
7.8481 1.89744 0
7.97468 1.89744 0
8.10127 1.89744 0
8.22785 1.89744 0
8.35443 1.89744 0
8.48101 1.89744 0
8.60759 1.89744 0
8.73418 1.89744 0
8.86076 1.89744 0
8.98734 1.89744 0
9.11392 1.89744 0
9.24051 1.89744 0
9.36709 1.89744 0
9.49367 1.89744 0
9.62025 1.89744 0
9.74684 1.89744 0
9.87342 1.89744 0
0.126582 1.84615 0
0.253165 1.84615 0
0.379747 1.84615 0
0.506329 1.84615 0
0.632911 1.84615 0
0.759494 1.84615 0
0.886076 1.84615 0
1.01266 1.84615 0
1.13924 1.84615 0
1.26582 1.84615 0
1.39241 1.84615 0
1.51899 1.84615 0
1.64557 1.84615 0
1.77215 1.84615 0
1.89873 1.84615 0
2.02532 1.84615 0
2.1519 1.84615 0
2.27848 1.84615 0
2.40506 1.84615 0
2.53165 1.84615 0
2.65823 1.84615 0
2.78481 1.84615 0
2.91139 1.84615 0
3.03797 1.84615 0
3.16456 1.84615 0
3.29114 1.84615 0
3.41772 1.84615 0
3.5443 1.84615 0
3.67089 1.84615 0
3.79747 1.84615 0
3.92405 1.84615 0
4.05063 1.84615 0
4.17722 1.84615 0
4.3038 1.84615 0
4.43038 1.84615 0
4.55696 1.84615 0
4.68354 1.84615 0
4.81013 1.84615 0
4.93671 1.84615 0
5.06329 1.84615 0
5.18987 1.84615 0
5.31646 1.84615 0
5.44304 1.84615 0
5.56962 1.84615 0
5.6962 1.84615 0
5.82278 1.84615 0
5.94937 1.84615 0
6.07595 1.84615 0
6.20253 1.84615 0
6.32911 1.84615 0
6.4557 1.84615 0
6.58228 1.84615 0
6.70886 1.84615 0
6.83544 1.84615 0
6.96203 1.84615 0
7.08861 1.84615 0
7.21519 1.84615 0
7.34177 1.84615 0
7.46835 1.84615 0
7.59494 1.84615 0
7.72152 1.84615 0
7.8481 1.84615 0
7.97468 1.84615 0
8.10127 1.84615 0
8.22785 1.84615 0
8.35443 1.84615 0
8.48101 1.84615 0
8.60759 1.84615 0
8.73418 1.84615 0
8.86076 1.84615 0
8.98734 1.84615 0
9.11392 1.84615 0
9.24051 1.84615 0
9.36709 1.84615 0
9.49367 1.84615 0
9.62025 1.84615 0
9.74684 1.84615 0
9.87342 1.84615 0
0.126582 1.79487 0
0.253165 1.79487 0
0.379747 1.79487 0
0.506329 1.79487 0
0.632911 1.79487 0
0.759494 1.79487 0
0.886076 1.79487 0
1.01266 1.79487 0
1.13924 1.79487 0
1.26582 1.79487 0
1.39241 1.79487 0
1.51899 1.79487 0
1.64557 1.79487 0
1.77215 1.79487 0
1.89873 1.79487 0
2.02532 1.79487 0
2.1519 1.79487 0
2.27848 1.79487 0
2.40506 1.79487 0
2.53165 1.79487 0
2.65823 1.79487 0
2.78481 1.79487 0
2.91139 1.79487 0
3.03797 1.79487 0
3.16456 1.79487 0
3.29114 1.79487 0
3.41772 1.79487 0
3.5443 1.79487 0
3.67089 1.79487 0
3.79747 1.79487 0
3.92405 1.79487 0
4.05063 1.79487 0
4.17722 1.79487 0
4.3038 1.79487 0
4.43038 1.79487 0
4.55696 1.79487 0
4.68354 1.79487 0
4.81013 1.79487 0
4.93671 1.79487 0
5.06329 1.79487 0
5.18987 1.79487 0
5.31646 1.79487 0
5.44304 1.79487 0
5.56962 1.79487 0
5.6962 1.79487 0
5.82278 1.79487 0
5.94937 1.79487 0
6.07595 1.79487 0
6.20253 1.79487 0
6.32911 1.79487 0
6.4557 1.79487 0
6.58228 1.79487 0
6.70886 1.79487 0
6.83544 1.79487 0
6.96203 1.79487 0
7.08861 1.79487 0
7.21519 1.79487 0
7.34177 1.79487 0
7.46835 1.79487 0
7.59494 1.79487 0
7.72152 1.79487 0
7.8481 1.79487 0
7.97468 1.79487 0
8.10127 1.79487 0
8.22785 1.79487 0
8.35443 1.79487 0
8.48101 1.79487 0
8.60759 1.79487 0
8.73418 1.79487 0
8.86076 1.79487 0
8.98734 1.79487 0
9.11392 1.79487 0
9.24051 1.79487 0
9.36709 1.79487 0
9.49367 1.79487 0
9.62025 1.79487 0
9.74684 1.79487 0
9.87342 1.79487 0
0.126582 1.74359 0
0.253165 1.74359 0
0.379747 1.74359 0
0.506329 1.74359 0
0.632911 1.74359 0
0.759494 1.74359 0
0.886076 1.74359 0
1.01266 1.74359 0
1.13924 1.74359 0
1.26582 1.74359 0
1.39241 1.74359 0
1.51899 1.74359 0
1.64557 1.74359 0
1.77215 1.74359 0
1.89873 1.74359 0
2.02532 1.74359 0
2.1519 1.74359 0
2.27848 1.74359 0
2.40506 1.74359 0
2.53165 1.74359 0
2.65823 1.74359 0
2.78481 1.74359 0
2.91139 1.74359 0
3.03797 1.74359 0
3.16456 1.74359 0
3.29114 1.74359 0
3.41772 1.74359 0
3.5443 1.74359 0
3.67089 1.74359 0
3.79747 1.74359 0
3.92405 1.74359 0
4.05063 1.74359 0
4.17722 1.74359 0
4.3038 1.74359 0
4.43038 1.74359 0
4.55696 1.74359 0
4.68354 1.74359 0
4.81013 1.74359 0
4.93671 1.74359 0
5.06329 1.74359 0
5.18987 1.74359 0
5.31646 1.74359 0
5.44304 1.74359 0
5.56962 1.74359 0
5.6962 1.74359 0
5.82278 1.74359 0
5.94937 1.74359 0
6.07595 1.74359 0
6.20253 1.74359 0
6.32911 1.74359 0
6.4557 1.74359 0
6.58228 1.74359 0
6.70886 1.74359 0
6.83544 1.74359 0
6.96203 1.74359 0
7.08861 1.74359 0
7.21519 1.74359 0
7.34177 1.74359 0
7.46835 1.74359 0
7.59494 1.74359 0
7.72152 1.74359 0
7.8481 1.74359 0
7.97468 1.74359 0
8.10127 1.74359 0
8.22785 1.74359 0
8.35443 1.74359 0
8.48101 1.74359 0
8.60759 1.74359 0
8.73418 1.74359 0
8.86076 1.74359 0
8.98734 1.74359 0
9.11392 1.74359 0
9.24051 1.74359 0
9.36709 1.74359 0
9.49367 1.74359 0
9.62025 1.74359 0
[...]
CELL_DATA 3081
VECTORS velocity double
0.428164 -0.109865 0.0
0.331445 -0.03629 0.0
0.152758 -0.008119 0.0
0.102611 -0.000673799 0.0
0.0818463 1.76249e-05 0.0
0.067014 9.38893e-06 0.0
0.0564578 3.65123e-05 0.0
0.0488076 4.94198e-05 0.0
0.0432406 6.10699e-05 0.0
0.0392723 6.93113e-05 0.0
0.0365029 7.18211e-05 0.0
0.0346075 6.98638e-05 0.0
0.0333345 6.48373e-05 0.0
0.0324938 5.80043e-05 0.0
0.0319478 5.05136e-05 0.0
0.0316007 4.31921e-05 0.0
0.0313876 3.65066e-05 0.0
0.031265 3.06537e-05 0.0
0.0312034 2.56611e-05 0.0
0.0311831 2.14667e-05 0.0
0.0311905 1.79787e-05 0.0
0.0312159 1.50719e-05 0.0
0.0312523 1.26298e-05 0.0
0.0312947 1.05796e-05 0.0
0.0313397 8.86019e-06 0.0
0.0313847 7.40933e-06 0.0
0.031428 6.1781e-06 0.0
0.0314686 5.13542e-06 0.0
0.0315058 4.25477e-06 0.0
0.0315392 3.51595e-06 0.0
0.0315689 2.89786e-06 0.0
0.031595 2.38191e-06 0.0
0.0316176 1.95279e-06 0.0
0.0316371 1.59698e-06 0.0
0.0316538 1.30229e-06 0.0
0.031668 1.05895e-06 0.0
0.0316799 8.58653e-07 0.0
0.0316899 6.94148e-07 0.0
0.0316983 5.59432e-07 0.0
0.0317053 4.49416e-07 0.0
0.031711 3.59866e-07 0.0
0.0317158 2.87191e-07 0.0
0.0317197 2.28421e-07 0.0
0.0317229 1.81067e-07 0.0
0.0317255 1.43045e-07 0.0
0.0317276 1.12622e-07 0.0
0.0317293 8.83608e-08 0.0
0.0317307 6.90746e-08 0.0
0.0317318 5.37886e-08 0.0
0.0317327 4.1706e-08 0.0
0.0317335 3.21779e-08 0.0
0.031734 2.46774e-08 0.0
0.0317345 1.87766e-08 0.0
0.0317349 1.4128e-08 0.0
0.0317351 1.04485e-08 0.0
0.0317353 7.51083e-09 0.0
0.0317355 5.13885e-09 0.0
0.0317355 3.02713e-09 0.0
0.0317356 1.04705e-09 0.0
0.0317355 -7.89488e-10 0.0
0.0317354 -2.75332e-09 0.0
0.0317351 -5.14824e-09 0.0
0.0317347 -8.23706e-09 0.0
0.031734 -1.23505e-08 0.0
0.031733 -1.79207e-08 0.0
0.0317314 -2.54988e-08 0.0
0.0317291 -3.58195e-08 0.0
0.0317257 -4.95551e-08 0.0
0.0317206 -6.66955e-08 0.0
0.031713 -9.08137e-08 0.0
0.0317018 -1.09409e-07 0.0
0.0316851 -1.33042e-07 0.0
0.0316597 -1.46369e-07 0.0
0.0316242 -3.30473e-08 0.0
0.031561 -2.33109e-07 0.0
0.0314991 1.13048e-06 0.0
0.0312967 -1.88154e-06 0.0
0.0313529 3.65954e-05 0.0
0.0309375 -1.40911e-06 0.0
0.817446 -0.2736 0.0
0.867814 -0.151557 0.0
0.637485 -0.068706 0.0
0.491326 -0.0314768 0.0
0.401197 -0.0184061 0.0
0.334541 -0.0126076 0.0
0.285035 -0.00902886 0.0
0.248032 -0.00656432 0.0
0.220313 -0.00473921 0.0
0.199805 -0.00336479 0.0
0.18485 -0.00234677 0.0
0.174081 -0.00160936 0.0
0.166401 -0.00108746 0.0
0.160961 -0.000725391 0.0
0.157123 -0.00047742 0.0
0.154425 -0.000308462 0.0
0.152538 -0.000193251 0.0
0.151231 -0.000114404 0.0
0.15034 -6.03004e-05 0.0
0.149749 -2.32713e-05 0.0
0.149374 1.7742e-06 0.0
0.149154 1.82463e-05 0.0
0.149044 2.85285e-05 0.0
0.14901 3.44303e-05 0.0
0.149029 3.7174e-05 0.0
0.149081 3.75561e-05 0.0
0.149153 3.63262e-05 0.0
0.149235 3.40815e-05 0.0
0.149319 3.12424e-05 0.0
0.149403 2.81393e-05 0.0
0.149481 2.49814e-05 0.0
0.149554 2.19142e-05 0.0
0.149619 1.90322e-05 0.0
0.149678 1.63881e-05 0.0
0.149729 1.40041e-05 0.0
0.149773 1.18867e-05 0.0
0.149812 1.00297e-05 0.0
0.149844 8.41698e-06 0.0
0.149872 7.02871e-06 0.0
0.149896 5.84268e-06 0.0
0.149915 4.83624e-06 0.0
0.149932 3.98739e-06 0.0
0.149945 3.27546e-06 0.0
0.149957 2.68139e-06 0.0
0.149966 2.18796e-06 0.0
0.149973 1.77983e-06 0.0
0.14998 1.44351e-06 0.0
0.149985 1.16724e-06 0.0
0.149989 9.40888e-07 0.0
0.149992 7.5576e-07 0.0
0.149995 6.04427e-07 0.0
0.149997 4.80522e-07 0.0
0.149999 3.78556e-07 0.0
0.15 2.93723e-07 0.0
0.150001 2.21709e-07 0.0
0.150002 1.58494e-07 0.0
0.150003 1.00197e-07 0.0
0.150003 4.22607e-08 0.0
0.150003 -2.11935e-08 0.0
0.150003 -9.79199e-08 0.0
0.150002 -1.98532e-07 0.0
0.150001 -3.37494e-07 0.0
0.149999 -5.35354e-07 0.0
0.149996 -8.22277e-07 0.0
0.149992 -1.24286e-06 0.0
0.149985 -1.86316e-06 0.0
0.149975 -2.78158e-06 0.0
0.149961 -4.14421e-06 0.0
0.149938 -6.16554e-06 0.0
0.149905 -9.18608e-06 0.0
0.149856 -1.36628e-05 0.0
0.149782 -2.03829e-05 0.0
0.14967 -3.05525e-05 0.0
0.149508 -4.56559e-05 0.0
0.149238 -6.99514e-05 0.0
0.148912 -0.000101209 0.0
0.148145 -0.000153111 0.0
0.147937 -6.07246e-05 0.0
0.145945 -0.000235285 0.0
0.941035 -0.260502 0.0
1.07627 -0.199846 0.0
0.922655 -0.129853 0.0
0.781289 -0.085256 0.0
0.669221 -0.0598373 0.0
0.575094 -0.0440059 0.0
0.499233 -0.0329416 0.0
0.439304 -0.0247439 0.0
0.392535 -0.0184367 0.0
0.35667 -0.0135511 0.0
0.329621 -0.00982318 0.0
0.309496 -0.00703817 0.0
0.294671 -0.00499997 0.0
0.283821 -0.00353248 0.0
0.27591 -0.00248612 0.0
0.270154 -0.00174226 0.0
0.265976 -0.00121234 0.0
0.262957 -0.000833042 0.0
0.26079 -0.000560315 0.0
0.259251 -0.000363824 0.0
0.258177 -0.00022263 0.0
0.257445 -0.000121999 0.0
0.256963 -5.13378e-05 0.0
0.256663 -2.84798e-06 0.0
0.256492 2.92166e-05 0.0
0.256413 4.91815e-05 0.0
0.256397 6.03436e-05 0.0
0.256422 6.51248e-05 0.0
0.256473 6.55009e-05 0.0
0.256539 6.30197e-05 0.0
0.25661 5.87764e-05 0.0
0.256683 5.35751e-05 0.0
0.256753 4.79817e-05 0.0
0.256818 4.23721e-05 0.0
0.256877 3.69854e-05 0.0
0.256931 3.19707e-05 0.0
0.256978 2.74083e-05 0.0
0.257019 2.3328e-05 0.0
0.257055 1.97292e-05 0.0
0.257085 1.65911e-05 0.0
0.257111 1.38808e-05 0.0
0.257133 1.15593e-05 0.0
0.257151 9.58515e-06 0.0
0.257166 7.91709e-06 0.0
0.257179 6.5156e-06 0.0
0.25719 5.34399e-06 0.0
0.257199 4.36882e-06 0.0
0.257206 3.56017e-06 0.0
0.257212 2.89161e-06 0.0
0.257217 2.33998e-06 0.0
0.25722 1.88511e-06 0.0
0.257224 1.50937e-06 0.0
0.257226 1.19728e-06 0.0
0.257228 9.35e-07 0.0
0.25723 7.09796e-07 0.0
0.257231 5.09467e-07 0.0
0.257232 3.217e-07 0.0
0.257232 1.33002e-07 0.0
0.257232 -7.59088e-08 0.0
0.257232 -3.32648e-07 0.0
0.257231 -6.72731e-07 0.0
0.257229 -1.14463e-06 0.0
0.257226 -1.81875e-06 0.0
0.257222 -2.79897e-06 0.0
0.257215 -4.23935e-06 0.0
0.257205 -6.3689e-06 0.0
0.257189 -9.52932e-06 0.0
0.257166 -1.4231e-05 0.0
0.257131 -2.12356e-05 0.0
0.257079 -3.17128e-05 0.0
0.257001 -4.73772e-05 0.0
0.256884 -7.09746e-05 0.0
0.256707 -0.000106711 0.0
0.256446 -0.00016112 0.0
0.256023 -0.000244777 0.0
0.255476 -0.000368061 0.0
0.254301 -0.000533863 0.0
0.253675 -0.00056069 0.0
0.250214 -0.000835723 0.0
0.972395 -0.216803 0.0
1.14792 -0.214151 0.0
1.06553 -0.170785 0.0
0.962447 -0.13235 0.0
0.862383 -0.10355 0.0
0.765946 -0.0816365 0.0
0.68043 -0.0641658 0.0
0.607957 -0.0499654 0.0
0.548266 -0.0383516 0.0
0.500415 -0.0289601 0.0
0.462925 -0.0215417 0.0
0.434077 -0.0158312 0.0
0.412179 -0.0115359 0.0
0.395714 -0.00836174 0.0
0.383409 -0.00604178 0.0
0.374248 -0.00435382 0.0
0.367451 -0.0031253 0.0
0.362423 -0.00222849 0.0
0.358721 -0.00157159 0.0
0.356013 -0.00108951 0.0
0.354049 -0.000736094 0.0
0.352641 -0.00047822 0.0
0.351649 -0.000291733 0.0
0.350964 -0.000158757 0.0
0.350506 -6.58151e-05 0.0
0.350211 -2.58349e-06 0.0
0.350033 3.87058e-05 0.0
0.349938 6.39484e-05 0.0
0.349902 7.76146e-05 0.0
0.349904 8.30774e-05 0.0
0.34993 8.30095e-05 0.0
0.349971 7.94074e-05 0.0
0.350019 7.37079e-05 0.0
0.35007 6.69111e-05 0.0
0.35012 5.97037e-05 0.0
0.350167 5.25475e-05 0.0
0.350211 4.57337e-05 0.0
0.35025 3.94304e-05 0.0
0.350285 3.3723e-05 0.0
0.350316 2.86406e-05 0.0
0.350343 2.41746e-05 0.0
0.350366 2.02933e-05 0.0
0.350385 1.69514e-05 0.0
0.350402 1.40967e-05 0.0
0.350415 1.16749e-05 0.0
0.350427 9.6328e-06 0.0
0.350437 7.91959e-06 0.0
0.350445 6.48856e-06 0.0
0.350452 5.29737e-06 0.0
0.350457 4.3082e-06 0.0
0.350462 3.48747e-06 0.0
0.350465 2.80538e-06 0.0
0.350468 2.23534e-06 0.0
0.350471 1.75316e-06 0.0
0.350472 1.33623e-06 0.0
0.350474 9.62399e-07 0.0
0.350475 6.08725e-07 0.0
0.350475 2.50197e-07 0.0
0.350475 -1.4995e-07 0.0
0.350475 -6.4502e-07 0.0
0.350474 -1.30322e-06 0.0
0.350472 -2.2186e-06 0.0
0.350468 -3.52851e-06 0.0
0.350463 -5.43601e-06 0.0
0.350454 -8.24269e-06 0.0
0.350442 -1.23977e-05 0.0
0.350423 -1.8572e-05 0.0
0.350395 -2.77708e-05 0.0
0.350353 -4.15027e-05 0.0
0.350289 -6.20635e-05 0.0
0.350195 -9.29151e-05 0.0
0.350052 -0.000139483 0.0
0.349836 -0.000210088 0.0
0.349516 -0.000318569 0.0
0.349002 -0.000483554 0.0
0.348313 -0.000739529 0.0
0.346903 -0.00107487 0.0
0.345921 -0.0014112 0.0
0.341421 -0.00172018 0.0
0.969962 -0.173981 0.0
1.15797 -0.209052 0.0
1.12375 -0.191883 0.0
1.06055 -0.165862 0.0
0.985122 -0.140675 0.0
0.900964 -0.117758 0.0
0.818672 -0.0969733 0.0
0.743604 -0.0783729 0.0
0.678055 -0.062061 0.0
0.622916 -0.0481679 0.0
0.577925 -0.0367316 0.0
0.542086 -0.0276196 0.0
0.514065 -0.020558 0.0
0.492458 -0.0151998 0.0
0.475959 -0.0111907 0.0
0.463446 -0.00821323 0.0
0.454005 -0.00600762 0.0
0.446911 -0.00437303 0.0
0.441604 -0.0031598 0.0
0.437652 -0.00225854 0.0
0.434729 -0.00158964 0.0
0.432582 -0.00109489 0.0
0.43102 -0.000731241 0.0
0.429897 -0.00046652 0.0
0.429102 -0.00027636 0.0
0.42855 -0.00014216 0.0
0.428175 -4.96603e-05 0.0
0.42793 1.21339e-05 0.0
0.427778 5.14733e-05 0.0
0.427691 7.45421e-05 0.0
0.42765 8.60724e-05 0.0
0.427641 8.96687e-05 0.0
0.427651 8.80602e-05 0.0
0.427674 8.32062e-05 0.0
0.427703 7.65052e-05 0.0
0.427735 6.89284e-05 0.0
0.427767 6.1128e-05 0.0
0.427798 5.3525e-05 0.0
0.427827 4.63776e-05 0.0
0.427854 3.98302e-05 0.0
0.427877 3.39477e-05 0.0
0.427898 2.8743e-05 0.0
0.427916 2.41945e-05 0.0
0.427932 2.02603e-05 0.0
0.427945 1.68866e-05 0.0
0.427957 1.40147e-05 0.0
0.427966 1.15851e-05 0.0
0.427974 9.54039e-06 0.0
0.427981 7.82665e-06 0.0
0.427987 6.3945e-06 0.0
0.427991 5.19914e-06 0.0
0.427995 4.20008e-06 0.0
0.427998 3.36053e-06 0.0
0.428 2.64647e-06 0.0
0.428002 2.02554e-06 0.0
0.428004 1.46541e-06 0.0
0.428005 9.31863e-07 0.0
0.428006 3.86887e-07 0.0
0.428006 -2.25053e-07 0.0
0.428005 -9.84212e-07 0.0
0.428004 -1.99466e-06 0.0
0.428002 -3.40126e-06 0.0
0.427998 -5.41591e-06 0.0
0.427993 -8.35214e-06 0.0
0.427984 -1.26759e-05 0.0
0.427971 -1.9082e-05 0.0
0.427951 -2.86093e-05 0.0
0.427921 -4.28159e-05 0.0
0.427877 -6.40466e-05 0.0
0.42781 -9.58608e-05 0.0
0.42771 -0.000143676 0.0
0.427559 -0.000215918 0.0
0.427331 -0.000325546 0.0
0.426993 -0.000494382 0.0
0.426454 -0.000751013 0.0
0.425715 -0.00115699 0.0
0.424255 -0.00169986 0.0
0.423109 -0.00245506 0.0
0.418245 -0.00275308 0.0
0.957825 -0.137036 0.0
1.1426 -0.193498 0.0
1.13579 -0.198487 0.0
1.1037 -0.186769 0.0
1.05321 -0.169046 0.0
0.986286 -0.148883 0.0
0.913953 -0.127794 0.0
0.842994 -0.106925 0.0
0.777358 -0.0872394 0.0
0.719467 -0.0695268 0.0
0.670313 -0.0542944 0.0
0.629817 -0.0417083 0.0
0.597243 -0.0316465 0.0
0.571521 -0.0238039 0.0
0.551486 -0.0177986 0.0
0.53604 -0.0132504 0.0
0.52422 -0.00982598 0.0
0.515229 -0.00725387 0.0
0.508424 -0.00532345 0.0
0.503298 -0.00387547 0.0
0.499457 -0.00279097 0.0
0.496594 -0.0019812 0.0
0.494476 -0.0013796 0.0
0.492921 -0.000935899 0.0
0.491789 -0.000611849 0.0
0.490976 -0.00037816 0.0
0.490399 -0.000212331 0.0
0.489998 -9.70822e-05 0.0
0.489724 -1.91505e-05 0.0
0.489543 3.15549e-05 0.0
0.489428 6.2599e-05 0.0
0.489361 7.96448e-05 0.0
0.489327 8.69573e-05 0.0
0.489316 8.77617e-05 0.0
0.489319 8.44167e-05 0.0
0.489331 7.85982e-05 0.0
0.489348 7.14725e-05 0.0
0.489368 6.38347e-05 0.0
0.489388 5.6208e-05 0.0
0.489408 4.89231e-05 0.0
0.489427 4.21735e-05 0.0
0.489444 3.60586e-05 0.0
0.489459 3.06135e-05 0.0
0.489472 2.58307e-05 0.0
0.489484 2.16765e-05 0.0
0.489494 1.81015e-05 0.0
0.489503 1.50483e-05 0.0
0.489511 1.24572e-05 0.0
0.489517 1.02694e-05 0.0
0.489522 8.42882e-06 0.0
0.489526 6.88309e-06 0.0
0.48953 5.58382e-06 0.0
0.489533 4.48615e-06 0.0
0.489536 3.54783e-06 0.0
0.489537 2.72787e-06 0.0
0.489539 1.98455e-06 0.0
0.48954 1.27276e-06 0.0
0.489541 5.41093e-07 0.0
0.489541 -2.83967e-07 0.0
0.48954 -1.30788e-06 0.0
0.489539 -2.67018e-06 0.0
0.489537 -4.56659e-06 0.0
0.489534 -7.28355e-06 0.0
0.489528 -1.12448e-05 0.0
0.48952 -1.70806e-05 0.0
0.489508 -2.57308e-05 0.0
0.489489 -3.86015e-05 0.0
0.489461 -5.78029e-05 0.0
0.489418 -8.65125e-05 0.0
0.489355 -0.000129549 0.0
0.48926 -0.00019426 0.0
0.489117 -0.000292031 0.0
0.488901 -0.000440368 0.0
0.48858 -0.000668639 0.0
0.488076 -0.00101585 0.0
0.48738 -0.00156809 0.0
0.48604 -0.00232363 0.0
0.484949 -0.00350996 0.0
0.480441 -0.00378627 0.0
0.945408 -0.108047 0.0
1.11962 -0.174574 0.0
1.12492 -0.196241 0.0
1.11342 -0.197953 0.0
1.08308 -0.189168 0.0
1.0327 -0.17402 0.0
0.97226 -0.1549 0.0
0.908651 -0.133697 0.0
0.84655 -0.112094 0.0
0.789333 -0.091534 0.0
0.738952 -0.0730584 0.0
0.696149 -0.0572308 0.0
0.660814 -0.0441844 0.0
0.632297 -0.0337455 0.0
0.609682 -0.0255718 0.0
0.591983 -0.0192648 0.0
0.578272 -0.0144429 0.0
0.567731 -0.010776 0.0
0.559677 -0.00799624 0.0
0.553557 -0.00589371 0.0
0.54893 -0.00430722 0.0
0.545449 -0.003114 0.0
0.542845 -0.00222059 0.0
0.540909 -0.00155572 0.0
0.539479 -0.00106477 0.0
0.538432 -0.000705785 0.0
0.537672 -0.000446445 0.0
0.537127 -0.000261898 0.0
0.536742 -0.000133051 0.0
0.536473 -4.5285e-05 0.0
0.536291 1.25364e-05 0.0
0.536169 4.87668e-05 0.0
0.536093 6.96028e-05 0.0
0.536048 7.97077e-05 0.0
0.536025 8.25646e-05 0.0
0.536017 8.07203e-05 0.0
0.536018 7.59916e-05 0.0
0.536025 6.96561e-05 0.0
0.536036 6.2587e-05 0.0
0.536048 5.53674e-05 0.0
0.536061 4.83713e-05 0.0
0.536074 4.18253e-05 0.0
0.536086 3.58525e-05 0.0
0.536097 3.05052e-05 0.0
0.536106 2.57885e-05 0.0
0.536115 2.16772e-05 0.0
0.536123 1.81279e-05 0.0
0.536129 1.50879e-05 0.0
0.536135 1.25001e-05 0.0
0.53614 1.03073e-05 0.0
0.536144 8.45399e-06 0.0
0.536147 6.88714e-06 0.0
0.53615 5.55646e-06 0.0
0.536152 4.41358e-06 0.0
0.536154 3.41061e-06 0.0
0.536155 2.49789e-06 0.0
0.536156 1.6206e-06 0.0
0.536157 7.14701e-07 0.0
0.536157 -3.0903e-07 0.0
0.536157 -1.57758e-06 0.0
0.536156 -3.26255e-06 0.0
0.536154 -5.60609e-06 0.0
0.536151 -8.96246e-06 0.0
0.536147 -1.38557e-05 0.0
0.53614 -2.1065e-05 0.0
0.536129 -3.17527e-05 0.0
0.536113 -4.76574e-05 0.0
0.536088 -7.13878e-05 0.0
0.536051 -0.000106871 0.0
0.535996 -0.00016005 0.0
0.535914 -0.00023998 0.0
0.535791 -0.000360629 0.0
0.535606 -0.000543402 0.0
0.535333 -0.000823837 0.0
0.534909 -0.00124983 0.0
0.534329 -0.0019259 0.0
0.533244 -0.00286362 0.0
0.532382 -0.00440848 0.0
0.528806 -0.00467585 0.0
0.935521 -0.0867685 0.0
1.09707 -0.15644 0.0
1.10449 -0.189586 0.0
1.10442 -0.202623 0.0
1.08811 -0.202754 0.0
1.05104 -0.193658 0.0
1.00161 -0.177931 0.0
0.946093 -0.157833 0.0
0.889222 -0.135558 0.0
0.834803 -0.113108 0.0
0.785364 -0.0920456 0.0
0.74224 -0.0733676 0.0
0.705831 -0.0575204 0.0
0.675883 -0.0445258 0.0
0.651749 -0.0341372 0.0
0.632608 -0.025981 0.0
0.617614 -0.0196559 0.0
0.60598 -0.0147907 0.0
0.59702 -0.0110684 0.0
0.590163 -0.00823182 0.0
0.584942 -0.00607766 0.0
0.580988 -0.00444782 0.0
0.578009 -0.00322012 0.0
0.575775 -0.00230038 0.0
0.574111 -0.00161593 0.0
0.572878 -0.00111069 0.0
0.571972 -0.000741344 0.0
0.571311 -0.000474506 0.0
0.570834 -0.000284477 0.0
0.570493 -0.00015155 0.0
0.570254 -6.06922e-05 0.0
0.570088 -4.78758e-07 0.0
0.569975 3.7675e-05 0.0
0.569902 6.01389e-05 0.0
0.569856 7.16527e-05 0.0
0.56983 7.57268e-05 0.0
0.569817 7.49307e-05 0.0
0.569814 7.11073e-05 0.0
0.569815 6.55481e-05 0.0
0.569821 5.91419e-05 0.0
0.569828 5.24865e-05 0.0
0.569837 4.59697e-05 0.0
0.569845 3.98299e-05 0.0
0.569854 3.42002e-05 0.0
0.569861 2.91414e-05 0.0
0.569868 2.46658e-05 0.0
0.569875 2.07547e-05 0.0
0.56988 1.73702e-05 0.0
0.569885 1.44638e-05 0.0
0.569889 1.19822e-05 0.0
0.569893 9.87081e-06 0.0
0.569896 8.07533e-06 0.0
0.569898 6.5427e-06 0.0
0.569901 5.22064e-06 0.0
0.569902 4.05632e-06 0.0
0.569904 2.99388e-06 0.0
0.569905 1.97057e-06 0.0
0.569905 9.11405e-07 0.0
0.569906 -2.8537e-07 0.0
0.569906 -1.7636e-06 0.0
0.569905 -3.72138e-06 0.0
0.569904 -6.43948e-06 0.0
0.569902 -1.03284e-05 0.0
0.569898 -1.59952e-05 0.0
0.569892 -2.43421e-05 0.0
0.569884 -3.67145e-05 0.0
0.569871 -5.51239e-05 0.0
0.569852 -8.25855e-05 0.0
0.569823 -0.000123632 0.0
0.56978 -0.00018511 0.0
0.569716 -0.000277407 0.0
0.569621 -0.000416466 0.0
0.569479 -0.000626549 0.0
0.569272 -0.000947371 0.0
0.568958 -0.00143276 0.0
0.56854 -0.00219734 0.0
0.567794 -0.00326222 0.0
0.567254 -0.00503999 0.0
0.564939 -0.00531977 0.0
0.928365 -0.0717818 0.0
1.07786 -0.14103 0.0
1.08164 -0.181608 0.0
1.08609 -0.203624 0.0
1.07806 -0.211841 0.0
1.05035 -0.208957 0.0
1.00974 -0.197307 0.0
0.961595 -0.179207 0.0
0.910325 -0.157153 0.0
0.859764 -0.13359 0.0
0.812675 -0.110549 0.0
0.770722 -0.0894484 0.0
0.734648 -0.071068 0.0
0.7045 -0.0556587 0.0
0.679871 -0.0431071 0.0
0.660111 -0.0330971 0.0
0.644479 -0.0252338 0.0
0.632249 -0.0191219 0.0
0.622765 -0.0144065 0.0
0.615462 -0.0107886 0.0
0.609872 -0.00802536 0.0
0.605616 -0.00592405 0.0
0.602392 -0.00433343 0.0
0.599962 -0.00313565 0.0
0.59814 -0.00223913 0.0
0.596781 -0.00157282 0.0
0.595773 -0.0010817 0.0
0.595032 -0.000723214 0.0
0.59449 -0.000464574 0.0
0.594098 -0.000280573 0.0
0.593817 -0.000151941 0.0
0.593618 -6.40113e-05 0.0
0.59348 -5.67684e-06 0.0
0.593385 3.13945e-05 0.0
0.593322 5.33876e-05 0.0
0.593282 6.4867e-05 0.0
0.593258 6.92006e-05 0.0
0.593246 6.88469e-05 0.0
0.593241 6.55623e-05 0.0
0.59324 6.05799e-05 0.0
0.593243 5.47513e-05 0.0
0.593248 4.86505e-05 0.0
0.593254 4.2651e-05 0.0
0.59326 3.69829e-05 0.0
0.593265 3.17756e-05 0.0
0.593271 2.70893e-05 0.0
0.593276 2.29379e-05 0.0
0.593281 1.93049e-05 0.0
0.593285 1.6156e-05 0.0
0.593289 1.34461e-05 0.0
0.593292 1.11246e-05 0.0
0.593295 9.13909e-06 0.0
0.593297 7.43596e-06 0.0
0.593299 5.96111e-06 0.0
0.5933 4.65867e-06 0.0
0.593302 3.46842e-06 0.0
0.593303 2.32168e-06 0.0
0.593303 1.13496e-06 0.0
0.593304 -2.02577e-07 0.0
0.593304 -1.84659e-06 0.0
0.593304 -4.01475e-06 0.0
0.593303 -7.01653e-06 0.0
0.593301 -1.13042e-05 0.0
0.593299 -1.75459e-05 0.0
0.593295 -2.67342e-05 0.0
0.59329 -4.03483e-05 0.0
0.593281 -6.05976e-05 0.0
0.593268 -9.07894e-05 0.0
0.593249 -0.000135886 0.0
0.59322 -0.000203354 0.0
0.593177 -0.000304473 0.0
0.593114 -0.000456425 0.0
0.593022 -0.000685112 0.0
0.592891 -0.0010322 0.0
0.592701 -0.0015539 0.0
0.592463 -0.00236619 0.0
0.592083 -0.00349351 0.0
0.591882 -0.00536302 0.0
0.590901 -0.00567336 0.0
0.923347 -0.0616095 0.0
1.06245 -0.129045 0.0
1.05971 -0.174268 0.0
1.06392 -0.203172 0.0
1.05951 -0.21831 0.0
1.03739 -0.221245 0.0
1.00304 -0.213788 0.0
0.96091 -0.198087 0.0
0.914867 -0.176783 0.0
0.868518 -0.152645 0.0
0.824591 -0.128105 0.0
0.784847 -0.104971 0.0
0.750194 -0.0843457 0.0
0.720871 -0.066717 0.0
0.696647 -0.0521216 0.0
0.67702 -0.040321 0.0
0.661361 -0.0309449 0.0
0.649022 -0.0235888 0.0
0.639393 -0.0178706 0.0
0.63194 -0.0134562 0.0
0.626208 -0.0100674 0.0
0.621826 -0.00747888 0.0
0.618494 -0.00551139 0.0
0.615972 -0.00402367 0.0
0.614073 -0.00290516 0.0
0.61265 -0.00206965 0.0
0.61159 -0.00145012 0.0
0.610805 -0.00099463 0.0
0.610228 -0.000663035 0.0
0.609806 -0.000424446 0.0
0.609501 -0.00025519 0.0
0.609282 -0.000137213 0.0
0.609128 -5.68163e-05 0.0
0.60902 -3.67285e-06 0.0
0.608946 2.99515e-05 0.0
0.608897 4.97846e-05 0.0
0.608866 6.00382e-05 0.0
0.608847 6.38043e-05 0.0
0.608836 6.33251e-05 0.0
0.608832 6.01991e-05 0.0
0.608832 5.55492e-05 0.0
0.608833 5.01502e-05 0.0
0.608837 4.45226e-05 0.0
0.608841 3.90035e-05 0.0
0.608845 3.37992e-05 0.0
0.60885 2.90244e-05 0.0
0.608854 2.47311e-05 0.0
0.608858 2.09292e-05 0.0
0.608861 1.76018e-05 0.0
0.608865 1.47151e-05 0.0
0.608867 1.22255e-05 0.0
0.60887 1.00842e-05 0.0
0.608872 8.23918e-06 0.0
0.608873 6.63619e-06 0.0
0.608875 5.21793e-06 0.0
0.608876 3.92164e-06 0.0
0.608877 2.67479e-06 0.0
0.608878 1.3881e-06 0.0
0.608878 -5.49e-08 0.0
0.608879 -1.81662e-06 0.0
0.608879 -4.12666e-06 0.0
0.608879 -7.3124e-06 0.0
0.608878 -1.18517e-05 0.0
0.608877 -1.84501e-05 0.0
0.608875 -2.81545e-05 0.0
0.608872 -4.25239e-05 0.0
0.608868 -6.38837e-05 0.0
0.608862 -9.5709e-05 0.0
0.608852 -0.000143199 0.0
0.608838 -0.000214149 0.0
0.608818 -0.000320258 0.0
0.608788 -0.000479198 0.0
0.608747 -0.000717297 0.0
0.608694 -0.00107604 0.0
0.608628 -0.00161065 0.0
0.608569 -0.00243089 0.0
0.608539 -0.00355871 0.0
0.608638 -0.00539284 0.0
0.608871 -0.00574183 0.0
0.919778 -0.05508 0.0
1.0502 -0.12055 0.0
1.03984 -0.168691 0.0
1.04081 -0.202841 0.0
1.03652 -0.223695 0.0
1.01682 -0.231749 0.0
0.986351 -0.228201 0.0
0.948718 -0.214912 0.0
0.907211 -0.194554 0.0
0.865037 -0.170139 0.0
0.824691 -0.144432 0.0
0.787842 -0.119579 0.0
0.755412 -0.0969817 0.0
0.727716 -0.0773505 0.0