# vtk DataFile Version 3.0
Malha 2D com triângulos e temperatura
ASCII
DATASET UNSTRUCTURED_GRID

POINTS 961 double
0 0 0
1 0 0
1 1 0
0 1 0
0.0333333 0 0
0.0666667 0 0
0.1 0 0
0.133333 0 0
0.166667 0 0
0.2 0 0
0.233333 0 0
0.266667 0 0
0.3 0 0
0.333333 0 0
0.366667 0 0
0.4 0 0
0.433333 0 0
0.466667 0 0
0.5 0 0
0.533333 0 0
0.566667 0 0
0.6 0 0
0.633333 0 0
0.666667 0 0
0.7 0 0
0.733333 0 0
0.766667 0 0
0.8 0 0
0.833333 0 0
0.866667 0 0
0.9 0 0
0.933333 0 0
0.966667 0 0
1 0.0333333 0
1 0.0666667 0
1 0.1 0
1 0.133333 0
1 0.166667 0
1 0.2 0
1 0.233333 0
1 0.266667 0
1 0.3 0
1 0.333333 0
1 0.366667 0
1 0.4 0
1 0.433333 0
1 0.466667 0
1 0.5 0
1 0.533333 0
1 0.566667 0
1 0.6 0
1 0.633333 0
1 0.666667 0
1 0.7 0
1 0.733333 0
1 0.766667 0
1 0.8 0
1 0.833333 0
1 0.866667 0
1 0.9 0
1 0.933333 0
1 0.966667 0
0.966667 1 0
0.933333 1 0
0.9 1 0
0.866667 1 0
0.833333 1 0
0.8 1 0
0.766667 1 0
0.733333 1 0
0.7 1 0
0.666667 1 0
0.633333 1 0
0.6 1 0
0.566667 1 0
0.533333 1 0
0.5 1 0
0.466667 1 0
0.433333 1 0
0.4 1 0
0.366667 1 0
0.333333 1 0
0.3 1 0
0.266667 1 0
0.233333 1 0
0.2 1 0
0.166667 1 0
0.133333 1 0
0.1 1 0
0.0666667 1 0
0.0333333 1 0
0 0.966667 0
0 0.933333 0
0 0.9 0
0 0.866667 0
0 0.833333 0
0 0.8 0
0 0.766667 0
0 0.733333 0
0 0.7 0
0 0.666667 0
0 0.633333 0
0 0.6 0
0 0.566667 0
0 0.533333 0
0 0.5 0
0 0.466667 0
0 0.433333 0
0 0.4 0
0 0.366667 0
0 0.333333 0
0 0.3 0
0 0.266667 0
0 0.233333 0
0 0.2 0
0 0.166667 0
0 0.133333 0
0 0.1 0
0 0.0666667 0
0 0.0333333 0
0.0333333 0.0333333 0
0.0333333 0.0666667 0
0.0333333 0.1 0
0.0333333 0.133333 0
0.0333333 0.166667 0
0.0333333 0.2 0
0.0333333 0.233333 0
0.0333333 0.266667 0
0.0333333 0.3 0
0.0333333 0.333333 0
0.0333333 0.366667 0
0.0333333 0.4 0
0.0333333 0.433333 0
0.0333333 0.466667 0
0.0333333 0.5 0
0.0333333 0.533333 0
0.0333333 0.566667 0
0.0333333 0.6 0
0.0333333 0.633333 0
0.0333333 0.666667 0
0.0333333 0.7 0
0.0333333 0.733333 0
0.0333333 0.766667 0
0.0333333 0.8 0
0.0333333 0.833333 0
0.0333333 0.866667 0
0.0333333 0.9 0
0.0333333 0.933333 0
0.0333333 0.966667 0
0.0666667 0.0333333 0
0.0666667 0.0666667 0
0.0666667 0.1 0
0.0666667 0.133333 0
0.0666667 0.166667 0
0.0666667 0.2 0
0.0666667 0.233333 0
0.0666667 0.266667 0
0.0666667 0.3 0
0.0666667 0.333333 0
0.0666667 0.366667 0
0.0666667 0.4 0
0.0666667 0.433333 0
0.0666667 0.466667 0
0.0666667 0.5 0
0.0666667 0.533333 0
0.0666667 0.566667 0
0.0666667 0.6 0
0.0666667 0.633333 0
0.0666667 0.666667 0
0.0666667 0.7 0
0.0666667 0.733333 0
0.0666667 0.766667 0
0.0666667 0.8 0
0.0666667 0.833333 0
0.0666667 0.866667 0
0.0666667 0.9 0
0.0666667 0.933333 0
0.0666667 0.966667 0
0.1 0.0333333 0
0.1 0.0666667 0
0.1 0.1 0
0.1 0.133333 0
0.1 0.166667 0
0.1 0.2 0
0.1 0.233333 0
0.1 0.266667 0
0.1 0.3 0
0.1 0.333333 0
0.1 0.366667 0
0.1 0.4 0
0.1 0.433333 0
0.1 0.466667 0
0.1 0.5 0
0.1 0.533333 0
0.1 0.566667 0
0.1 0.6 0
0.1 0.633333 0
0.1 0.666667 0
0.1 0.7 0
0.1 0.733333 0
0.1 0.766667 0
0.1 0.8 0
0.1 0.833333 0
0.1 0.866667 0
0.1 0.9 0
0.1 0.933333 0
0.1 0.966667 0
0.133333 0.0333333 0
0.133333 0.0666667 0
0.133333 0.1 0
0.133333 0.133333 0
0.133333 0.166667 0
0.133333 0.2 0
0.133333 0.233333 0
0.133333 0.266667 0
0.133333 0.3 0
0.133333 0.333333 0
0.133333 0.366667 0
0.133333 0.4 0
0.133333 0.433333 0
0.133333 0.466667 0
0.133333 0.5 0
0.133333 0.533333 0
0.133333 0.566667 0
0.133333 0.6 0
0.133333 0.633333 0
0.133333 0.666667 0
0.133333 0.7 0
0.133333 0.733333 0
0.133333 0.766667 0
0.133333 0.8 0
0.133333 0.833333 0
0.133333 0.866667 0
0.133333 0.9 0
0.133333 0.933333 0
0.133333 0.966667 0
0.166667 0.0333333 0
0.166667 0.0666667 0
0.166667 0.1 0
0.166667 0.133333 0
0.166667 0.166667 0
0.166667 0.2 0
0.166667 0.233333 0
0.166667 0.266667 0
0.166667 0.3 0
0.166667 0.333333 0
0.166667 0.366667 0
0.166667 0.4 0
0.166667 0.433333 0
0.166667 0.466667 0
0.166667 0.5 0
0.166667 0.533333 0
0.166667 0.566667 0
0.166667 0.6 0
0.166667 0.633333 0
0.166667 0.666667 0
0.166667 0.7 0
0.166667 0.733333 0
0.166667 0.766667 0
0.166667 0.8 0
0.166667 0.833333 0
0.166667 0.866667 0
0.166667 0.9 0
0.166667 0.933333 0
0.166667 0.966667 0
0.2 0.0333333 0
0.2 0.0666667 0
0.2 0.1 0
0.2 0.133333 0
0.2 0.166667 0
0.2 0.2 0
0.2 0.233333 0
0.2 0.266667 0
0.2 0.3 0
0.2 0.333333 0
0.2 0.366667 0
0.2 0.4 0
0.2 0.433333 0
0.2 0.466667 0
0.2 0.5 0
0.2 0.533333 0
0.2 0.566667 0
0.2 0.6 0
0.2 0.633333 0
0.2 0.666667 0
0.2 0.7 0
0.2 0.733333 0
0.2 0.766667 0
0.2 0.8 0
0.2 0.833333 0
0.2 0.866667 0
0.2 0.9 0
0.2 0.933333 0
0.2 0.966667 0
0.233333 0.0333333 0
0.233333 0.0666667 0
0.233333 0.1 0
0.233333 0.133333 0
0.233333 0.166667 0
0.233333 0.2 0
0.233333 0.233333 0
0.233333 0.266667 0
0.233333 0.3 0
0.233333 0.333333 0
0.233333 0.366667 0
0.233333 0.4 0
0.233333 0.433333 0
0.233333 0.466667 0
0.233333 0.5 0
0.233333 0.533333 0
0.233333 0.566667 0
0.233333 0.6 0
0.233333 0.633333 0
0.233333 0.666667 0
0.233333 0.7 0
0.233333 0.733333 0
0.233333 0.766667 0
0.233333 0.8 0
0.233333 0.833333 0
0.233333 0.866667 0
0.233333 0.9 0
0.233333 0.933333 0
0.233333 0.966667 0
0.266667 0.0333333 0
0.266667 0.0666667 0
0.266667 0.1 0
0.266667 0.133333 0
0.266667 0.166667 0
0.266667 0.2 0
0.266667 0.233333 0
0.266667 0.266667 0
0.266667 0.3 0
0.266667 0.333333 0
0.266667 0.366667 0
0.266667 0.4 0
0.266667 0.433333 0
0.266667 0.466667 0
0.266667 0.5 0
0.266667 0.533333 0
0.266667 0.566667 0
0.266667 0.6 0
0.266667 0.633333 0
0.266667 0.666667 0
0.266667 0.7 0
0.266667 0.733333 0
0.266667 0.766667 0
0.266667 0.8 0
0.266667 0.833333 0
0.266667 0.866667 0
0.266667 0.9 0
0.266667 0.933333 0
0.266667 0.966667 0
0.3 0.0333333 0
0.3 0.0666667 0
0.3 0.1 0
0.3 0.133333 0
0.3 0.166667 0
0.3 0.2 0
0.3 0.233333 0
0.3 0.266667 0
0.3 0.3 0
0.3 0.333333 0
0.3 0.366667 0
0.3 0.4 0
0.3 0.433333 0
0.3 0.466667 0
0.3 0.5 0
0.3 0.533333 0
0.3 0.566667 0
0.3 0.6 0
0.3 0.633333 0
0.3 0.666667 0
0.3 0.7 0
0.3 0.733333 0
0.3 0.766667 0
0.3 0.8 0
0.3 0.833333 0
0.3 0.866667 0
0.3 0.9 0
0.3 0.933333 0
0.3 0.966667 0
0.333333 0.0333333 0
0.333333 0.0666667 0
0.333333 0.1 0
0.333333 0.133333 0
0.333333 0.166667 0
0.333333 0.2 0
0.333333 0.233333 0
0.333333 0.266667 0
0.333333 0.3 0
0.333333 0.333333 0
0.333333 0.366667 0
0.333333 0.4 0
0.333333 0.433333 0
0.333333 0.466667 0
0.333333 0.5 0
0.333333 0.533333 0
0.333333 0.566667 0
0.333333 0.6 0
0.333333 0.633333 0
0.333333 0.666667 0
0.333333 0.7 0
0.333333 0.733333 0
0.333333 0.766667 0
0.333333 0.8 0
0.333333 0.833333 0
0.333333 0.866667 0
0.333333 0.9 0
0.333333 0.933333 0
0.333333 0.966667 0
0.366667 0.0333333 0
0.366667 0.0666667 0
0.366667 0.1 0
0.366667 0.133333 0
0.366667 0.166667 0
0.366667 0.2 0
0.366667 0.233333 0
0.366667 0.266667 0
0.366667 0.3 0
0.366667 0.333333 0
0.366667 0.366667 0
0.366667 0.4 0
0.366667 0.433333 0
0.366667 0.466667 0
0.366667 0.5 0
0.366667 0.533333 0
0.366667 0.566667 0
0.366667 0.6 0
0.366667 0.633333 0
0.366667 0.666667 0
0.366667 0.7 0
0.366667 0.733333 0
0.366667 0.766667 0
0.366667 0.8 0
0.366667 0.833333 0
0.366667 0.866667 0
0.366667 0.9 0
0.366667 0.933333 0
0.366667 0.966667 0
0.4 0.0333333 0
0.4 0.0666667 0
0.4 0.1 0
0.4 0.133333 0
0.4 0.166667 0
0.4 0.2 0
0.4 0.233333 0
0.4 0.266667 0
0.4 0.3 0
0.4 0.333333 0
0.4 0.366667 0
0.4 0.4 0
0.4 0.433333 0
0.4 0.466667 0
0.4 0.5 0
0.4 0.533333 0
0.4 0.566667 0
0.4 0.6 0
0.4 0.633333 0
0.4 0.666667 0
0.4 0.7 0
0.4 0.733333 0
0.4 0.766667 0
0.4 0.8 0
0.4 0.833333 0
0.4 0.866667 0
0.4 0.9 0
0.4 0.933333 0
0.4 0.966667 0
0.433333 0.0333333 0
0.433333 0.0666667 0
0.433333 0.1 0
0.433333 0.133333 0
0.433333 0.166667 0
0.433333 0.2 0
0.433333 0.233333 0
0.433333 0.266667 0
0.433333 0.3 0
0.433333 0.333333 0
0.433333 0.366667 0
0.433333 0.4 0
0.433333 0.433333 0
0.433333 0.466667 0
0.433333 0.5 0
0.433333 0.533333 0
0.433333 0.566667 0
0.433333 0.6 0
0.433333 0.633333 0
0.433333 0.666667 0
0.433333 0.7 0
0.433333 0.733333 0
0.433333 0.766667 0
0.433333 0.8 0
0.433333 0.833333 0
0.433333 0.866667 0
0.433333 0.9 0
0.433333 0.933333 0
0.433333 0.966667 0
0.466667 0.0333333 0
0.466667 0.0666667 0
0.466667 0.1 0
0.466667 0.133333 0
0.466667 0.166667 0
0.466667 0.2 0
0.466667 0.233333 0
0.466667 0.266667 0
0.466667 0.3 0
0.466667 0.333333 0
0.466667 0.366667 0
0.466667 0.4 0
0.466667 0.433333 0
0.466667 0.466667 0
0.466667 0.5 0
0.466667 0.533333 0
0.466667 0.566667 0
0.466667 0.6 0
0.466667 0.633333 0
0.466667 0.666667 0
0.466667 0.7 0
0.466667 0.733333 0
0.466667 0.766667 0
0.466667 0.8 0
0.466667 0.833333 0
0.466667 0.866667 0
0.466667 0.9 0
0.466667 0.933333 0
0.466667 0.966667 0
0.5 0.0333333 0
0.5 0.0666667 0
0.5 0.1 0
0.5 0.133333 0
0.5 0.166667 0
0.5 0.2 0
0.5 0.233333 0
0.5 0.266667 0
0.5 0.3 0
0.5 0.333333 0
0.5 0.366667 0
0.5 0.4 0
0.5 0.433333 0
0.5 0.466667 0
0.5 0.5 0
0.5 0.533333 0
0.5 0.566667 0
0.5 0.6 0
0.5 0.633333 0
0.5 0.666667 0
0.5 0.7 0
0.5 0.733333 0
0.5 0.766667 0
0.5 0.8 0
0.5 0.833333 0
0.5 0.866667 0
0.5 0.9 0
0.5 0.933333 0
0.5 0.966667 0
0.533333 0.0333333 0
0.533333 0.0666667 0
0.533333 0.1 0
0.533333 0.133333 0
0.533333 0.166667 0
0.533333 0.2 0
0.533333 0.233333 0
0.533333 0.266667 0
0.533333 0.3 0
0.533333 0.333333 0
0.533333 0.366667 0
0.533333 0.4 0
0.533333 0.433333 0
0.533333 0.466667 0
0.533333 0.5 0
0.533333 0.533333 0
0.533333 0.566667 0
0.533333 0.6 0
0.533333 0.633333 0
0.533333 0.666667 0
0.533333 0.7 0
0.533333 0.733333 0
0.533333 0.766667 0
0.533333 0.8 0
0.533333 0.833333 0
0.533333 0.866667 0
0.533333 0.9 0
0.533333 0.933333 0
0.533333 0.966667 0
0.566667 0.0333333 0
0.566667 0.0666667 0
0.566667 0.1 0
0.566667 0.133333 0
0.566667 0.166667 0
0.566667 0.2 0
0.566667 0.233333 0
0.566667 0.266667 0
0.566667 0.3 0
0.566667 0.333333 0
0.566667 0.366667 0
0.566667 0.4 0
0.566667 0.433333 0
0.566667 0.466667 0
0.566667 0.5 0
0.566667 0.533333 0
0.566667 0.566667 0
0.566667 0.6 0
0.566667 0.633333 0
0.566667 0.666667 0
0.566667 0.7 0
0.566667 0.733333 0
0.566667 0.766667 0
0.566667 0.8 0
0.566667 0.833333 0
0.566667 0.866667 0
0.566667 0.9 0
0.566667 0.933333 0
0.566667 0.966667 0
0.6 0.0333333 0
0.6 0.0666667 0
0.6 0.1 0
0.6 0.133333 0
[...]
CELL_DATA 900
VECTORS velocity double
0.000130551 -0.00012949 0.0
6.64125e-05 -0.000240802 0.0
-7.21848e-05 1.97429e-06 0.0
-0.000215595 0.000666051 0.0
-0.000348005 0.00174789 0.0
-0.000466561 0.0032187 0.0
-0.000572111 0.00504463 0.0
-0.000665519 0.00719102 0.0
-0.000746749 0.00962181 0.0
-0.000814984 0.0122983 0.0
-0.000868989 0.0151781 0.0
-0.000907555 0.0182154 0.0
-0.000930014 0.0213613 0.0
-0.000936831 0.0245669 0.0
-0.000930285 0.0277871 0.0
-0.000915317 0.0309868 0.0
-0.000900692 0.034149 0.0
-0.000900859 0.0372871 0.0
-0.000939301 0.0404613 0.0
-0.00105502 0.0438032 0.0
-0.00131533 0.0475562 0.0
-0.00184101 0.0521412 0.0
-0.00285365 0.0582697 0.0
-0.00475782 0.0671363 0.0
-0.00825534 0.080723 0.0
-0.0143705 0.102123 0.0
-0.0236345 0.135661 0.0
-0.0313584 0.187104 0.0
-0.00547449 0.245512 0.0
0.245745 0.152946 0.0
0.000235392 -5.98242e-05 0.0
-0.00021951 0.000221734 0.0
-0.000941758 0.0013461 0.0
-0.00171212 0.00337633 0.0
-0.00245766 0.00632795 0.0
-0.00315117 0.0101665 0.0
-0.00378373 0.0148306 0.0
-0.00435101 0.0202473 0.0
-0.00484823 0.0263346 0.0
-0.00526933 0.0330025 0.0
-0.0056077 0.0401528 0.0
-0.00585779 0.0476796 0.0
-0.00601741 0.0554726 0.0
-0.00609047 0.0634218 0.0
-0.00609026 0.071426 0.0
-0.00604347 0.0794048 0.0
-0.00599513 0.0873148 0.0
-0.00601562 0.0951706 0.0
-0.0062112 0.103072 0.0
-0.00674112 0.111237 0.0
-0.00784565 0.120045 0.0
-0.00989032 0.130078 0.0
-0.0134284 0.14216 0.0
-0.0192633 0.157322 0.0
-0.0284213 0.176596 0.0
-0.0416935 0.200285 0.0
-0.0574404 0.226028 0.0
-0.0635068 0.244284 0.0
-0.00929637 0.227852 0.0
0.320377 0.119437 0.0
-1.12507e-05 7.30703e-05 0.0
-0.00133357 0.00088884 0.0
-0.00310705 0.00297636 0.0
-0.00499137 0.00627872 0.0
-0.00683988 0.0108008 0.0
-0.00858245 0.016505 0.0
-0.0101861 0.023316 0.0
-0.0116316 0.0311407 0.0
-0.0129023 0.0398723 0.0
-0.0139817 0.0493913 0.0
-0.0148535 0.059567 0.0
-0.0155048 0.0702579 0.0
-0.0159303 0.0813151 0.0
-0.0161389 0.0925874 0.0
-0.0161598 0.103931 0.0
-0.0160514 0.115219 0.0
-0.0159103 0.126363 0.0
-0.0158829 0.137325 0.0
-0.0161794 0.148144 0.0
-0.0170924 0.158952 0.0
-0.0190172 0.169988 0.0
-0.0224676 0.181578 0.0
-0.028059 0.194067 0.0
-0.0363794 0.207619 0.0
-0.0475384 0.221756 0.0
-0.059847 0.234421 0.0
-0.0660533 0.240238 0.0
-0.0427313 0.226289 0.0
0.0782244 0.169062 0.0
0.468012 0.0769614 0.0
-0.000627185 0.000191917 0.0
-0.0032236 0.0015026 0.0
-0.00632969 0.004462 0.0
-0.00956201 0.00884474 0.0
-0.0127277 0.0146171 0.0
-0.0157217 0.0217285 0.0
-0.0184867 0.0300924 0.0
-0.0209855 0.0396057 0.0
-0.0231871 0.0501508 0.0
-0.0250612 0.0615956 0.0
-0.0265788 0.0737935 0.0
-0.0277162 0.086584 0.0
-0.0284613 0.099794 0.0
-0.0288223 0.113242 0.0
-0.0288383 0.126746 0.0
-0.02859 0.14013 0.0
-0.0282121 0.153241 0.0
-0.0279048 0.165958 0.0
-0.0279454 0.178201 0.0
-0.0286954 0.189941 0.0
-0.0305969 0.201174 0.0
-0.0341364 0.21188 0.0
-0.0397278 0.221892 0.0
-0.0473987 0.23067 0.0
-0.0560188 0.236843 0.0
-0.0614616 0.237494 0.0
-0.052245 0.227153 0.0
0.000888688 0.19499 0.0
0.164626 0.128085 0.0
0.573246 0.0506044 0.0
-0.00154807 0.000279845 0.0
-0.00576997 0.00198188 0.0
-0.0104223 0.00563601 0.0
-0.0151452 0.010852 0.0
-0.0197356 0.0175448 0.0
-0.0240723 0.0256431 0.0
-0.028082 0.0350495 0.0
-0.0317125 0.0456571 0.0
-0.0349179 0.0573468 0.0
-0.037653 0.0699851 0.0
-0.0398728 0.0834217 0.0
-0.0415378 0.0974879 0.0
-0.042622 0.111996 0.0
-0.0431242 0.126741 0.0
-0.0430806 0.141506 0.0
-0.0425779 0.156064 0.0
-0.0417665 0.170191 0.0
-0.0408698 0.183672 0.0
-0.0401888 0.1963 0.0
-0.040094 0.207873 0.0
-0.0409927 0.218165 0.0
-0.0432421 0.226859 0.0
-0.0469487 0.233435 0.0
-0.0515232 0.236953 0.0
-0.0547206 0.235711 0.0
-0.0505804 0.22677 0.0
-0.025093 0.205438 0.0
0.0526267 0.164164 0.0
0.240731 0.0979886 0.0
0.644231 0.0336776 0.0
-0.0026868 0.00033705 0.0
-0.00880547 0.00231068 0.0
-0.0151602 0.00645109 0.0
-0.0214578 0.0122339 0.0
-0.0275176 0.0195238 0.0
-0.0332235 0.0282272 0.0
-0.0384984 0.0382375 0.0
-0.0432814 0.0494485 0.0
-0.0475144 0.0617468 0.0
-0.0511362 0.0750056 0.0
-0.0540825 0.0890791 0.0
-0.0562922 0.103798 0.0
-0.0577168 0.118968 0.0
-0.0583342 0.134365 0.0
-0.0581629 0.14974 0.0
-0.0572776 0.164819 0.0
-0.0558219 0.179311 0.0
-0.0540149 0.19291 0.0
-0.0521483 0.205293 0.0
-0.050563 0.216114 0.0
-0.0495904 0.224974 0.0
-0.0494246 0.23136 0.0
-0.0498598 0.23455 0.0
-0.0497606 0.233447 0.0
-0.0459984 0.226342 0.0
-0.0313363 0.210616 0.0
0.00965801 0.182413 0.0
0.105482 0.138231 0.0
0.307714 0.0761452 0.0
0.696305 0.0227329 0.0
-0.00396169 0.000369304 0.0
-0.0121541 0.00250136 0.0
-0.0203026 0.00692075 0.0
-0.0282063 0.013009 0.0
-0.0357316 0.0205905 0.0
-0.0427873 0.0295534 0.0
-0.0493059 0.0397867 0.0
-0.055226 0.0511901 0.0
-0.0604805 0.0636617 0.0
-0.064992 0.0770876 0.0
-0.0686735 0.0913335 0.0
-0.0714359 0.106237 0.0
-0.0731987 0.1216 0.0
-0.0739065 0.137187 0.0
-0.0735452 0.152722 0.0
-0.0721601 0.167889 0.0
-0.0698681 0.182337 0.0
-0.0668633 0.195682 0.0
-0.0634069 0.207506 0.0
-0.0597913 0.217352 0.0
-0.0562609 0.224702 0.0
-0.0528527 0.22893 0.0
-0.0490914 0.229229 0.0
-0.0434063 0.224495 0.0
-0.0320224 0.213163 0.0
-0.00692918 0.19297 0.0
0.0472252 0.161444 0.0
0.156597 0.117341 0.0
0.366229 0.0604677 0.0
0.736021 0.0157372 0.0
-0.00530376 0.000382484 0.0
-0.0156535 0.00257317 0.0
-0.0256223 0.00707894 0.0
-0.0351155 0.0132274 0.0
-0.0440652 0.020817 0.0
-0.052421 0.029726 0.0
-0.0601374 0.0398461 0.0
-0.0671601 0.0510888 0.0
-0.0734169 0.0633695 0.0
-0.0788141 0.0765933 0.0
-0.0832388 0.0906429 0.0
-0.0865668 0.105368 0.0
-0.0886765 0.120575 0.0
-0.0894664 0.136022 0.0
-0.0888759 0.151413 0.0
-0.0869043 0.166397 0.0
-0.0836262 0.180572 0.0
-0.0791956 0.19349 0.0
-0.0738317 0.204658 0.0
-0.0677743 0.213537 0.0
-0.0611878 0.219532 0.0
-0.0539793 0.221962 0.0
-0.045464 0.220005 0.0
-0.0337459 0.212628 0.0
-0.0145976 0.19844 0.0
0.0203848 0.175581 0.0
0.0852349 0.14312 0.0
0.204643 0.100556 0.0
0.417203 0.0490404 0.0
0.767033 0.0112334 0.0
-0.00665556 0.000380756 0.0
-0.019158 0.00254267 0.0
-0.0309104 0.0069594 0.0
-0.0419319 0.0129416 0.0
-0.052233 0.0202773 0.0
-0.061817 0.0288457 0.0
-0.0706701 0.0385496 0.0
-0.0787519 0.0493191 0.0
-0.0859886 0.0610925 0.0
-0.0922702 0.0737997 0.0
-0.0974543 0.0873462 0.0
-0.101376 0.1016 0.0
-0.103862 0.116379 0.0
-0.104754 0.131441 0.0
-0.10393 0.146478 0.0
-0.101331 0.161115 0.0
-0.0969729 0.174908 0.0
-0.0909604 0.187357 0.0
-0.0834655 0.197909 0.0
-0.0746786 0.205967 0.0
-0.0647008 0.210885 0.0
-0.0533439 0.211958 0.0
-0.0397718 0.20839 0.0
-0.0218542 0.199249 0.0
0.00493277 0.183265 0.0
0.0484599 0.15945 0.0
0.12234 0.12726 0.0
0.249167 0.0869369 0.0
0.461742 0.0405022 0.0
0.791862 0.00827339 0.0
-0.00796762 0.000366395 0.0
-0.0225369 0.00242099 0.0
-0.0359754 0.00658779 0.0
-0.0484211 0.012194 0.0
-0.0599718 0.019033 0.0
-0.0706933 0.0269959 0.0
-0.0806114 0.0360053 0.0
-0.0897048 0.0460167 0.0
-0.0979004 0.0569973 0.0
-0.105072 0.0689066 0.0
-0.111045 0.0816791 0.0
-0.115607 0.0952073 0.0
-0.118526 0.109328 0.0
-0.119576 0.123807 0.0
-0.11856 0.138335 0.0
-0.115346 0.15252 0.0
-0.109881 0.165892 0.0
-0.102209 0.177907 0.0
-0.0924531 0.187965 0.0
-0.0807616 0.195423 0.0
-0.0671923 0.1996 0.0
-0.0514998 0.199785 0.0
-0.0327575 0.195229 0.0
-0.00869524 0.18509 0.0
0.0252159 0.168351 0.0
0.0763921 0.144553 0.0
0.157858 0.113395 0.0
0.290111 0.0756704 0.0
0.500814 0.0339327 0.0
0.812182 0.00627032 0.0
-0.00919493 0.000340162 0.0
-0.0256697 0.00221416 0.0
-0.0406397 0.00598108 0.0
-0.0543652 0.0110159 0.0
-0.0670368 0.017132 0.0
-0.0787886 0.0242427 0.0
-0.0896907 0.0322988 0.0
-0.0997449 0.0412871 0.0
-0.108881 0.0512087 0.0
-0.116955 0.0620575 0.0
-0.12376 0.073802 0.0
-0.129031 0.086366 0.0
-0.13247 0.0996124 0.0
-0.133772 0.113327 0.0
-0.132655 0.127209 0.0
-0.1289 0.140863 0.0
-0.122372 0.153801 0.0
-0.113046 0.165452 0.0
-0.100992 0.175176 0.0
-0.0863227 0.182289 0.0
-0.0690717 0.186081 0.0
-0.0489714 0.185837 0.0
-0.0250586 0.180863 0.0
0.00501562 0.170342 0.0
0.0454252 0.15374 0.0
0.103459 0.130634 0.0
0.191342 0.101037 0.0
0.32753 0.066106 0.0
0.535176 0.0287023 0.0
0.829078 0.00486115 0.0
-0.0102942 0.000301847 0.0
-0.0284427 0.00192482 0.0
-0.0447367 0.00515058 0.0
-0.0595605 0.00943169 0.0
-0.0731996 0.0146147 0.0
-0.0858587 0.020644 0.0
-0.0976548 0.0275055 0.0
-0.108615 0.0352218 0.0
-0.118672 0.0438313 0.0
-0.127668 0.0533664 0.0
-0.135358 0.0638337 0.0
-0.141424 0.0751949 0.0
-0.145496 0.0873476 0.0
-0.147184 0.100108 0.0
-0.146109 0.113197 0.0
-0.141951 0.126231 0.0
-0.134483 0.13872 0.0
-0.123596 0.150075 0.0
-0.109301 0.159629 0.0
-0.0916766 0.16666 0.0
-0.0707505 0.170431 0.0
-0.0462652 0.170214 0.0
-0.0172852 0.165363 0.0
0.0184541 0.155142 0.0
0.064922 0.139255 0.0
0.12914 0.117366 0.0
0.222498 0.0897238 0.0
0.361505 0.0577227 0.0
0.565392 0.0243676 0.0
0.843255 0.00381813 0.0
-0.0112227 0.000250825 0.0
-0.0307474 0.00155455 0.0
-0.0481107 0.00410659 0.0
-0.0638184 0.00746569 0.0
-0.0782491 0.0115231 0.0
-0.0916771 0.0162613 0.0
-0.104266 0.0217053 0.0
-0.11607 0.0279165 0.0
-0.127026 0.0349725 0.0
-0.13696 0.0429457 0.0
-0.145592 0.0518845 0.0
-0.152551 0.0617934 0.0
-0.157392 0.0726137 0.0
-0.159633 0.0842034 0.0
-0.158792 0.0963208 0.0
-0.154437 0.108611 0.0
-0.14623 0.120599 0.0
-0.133968 0.131698 0.0
-0.117589 0.141222 0.0
-0.0971343 0.148421 0.0
-0.0726357 0.152519 0.0
-0.0438751 0.152773 0.0
-0.00999555 0.148559 0.0
0.0310998 0.139206 0.0
0.0832074 0.124545 0.0
0.15302 0.104346 0.0
0.251083 0.079014 0.0
0.39208 0.0500883 0.0
0.591855 0.0206047 0.0
0.855168 0.00299541 0.0
-0.0119378 0.000186529 0.0
-0.0324817 0.0011061 0.0
-0.0506182 0.00286325 0.0
-0.0669674 0.00514992 0.0
-0.0819942 0.00791117 0.0
-0.0960381 0.0111718 0.0
-0.109307 0.014998 0.0
-0.12188 0.0194899 0.0
-0.133701 0.0247637 0.0
-0.144581 0.030932 0.0
-0.154208 0.0380861 0.0
-0.162158 0.0462778 0.0
-0.167914 0.0554993 0.0
-0.170901 0.0656624 0.0
-0.17053 0.0765793 0.0
-0.166244 0.0879436 0.0
-0.157586 0.0993199 0.0
-0.144233 0.110143 0.0
-0.126034 0.119728 0.0
-0.102982 0.127298 0.0
-0.0751128 0.132044 0.0
-0.0422686 0.133188 0.0
-0.00370874 0.130094 0.0
0.0424388 0.122127 0.0
0.0997975 0.109192 0.0
0.174695 0.091144 0.0
0.276841 0.0684883 0.0
0.419225 0.0428352 0.0
0.614794 0.0171672 0.0
0.865087 0.00229673 0.0
-0.0123984 0.000108822 0.0
-0.0335519 0.000585341 0.0
-0.0521321 0.00144301 0.0
-0.0688578 0.0025306 0.0
-0.0842687 0.00385344 0.0
-0.0987608 0.00547991 0.0
-0.112582 0.00751635 0.0
-0.125833 0.010099 0.0
-0.138467 0.0133796 0.0
-0.150282 0.0175083 0.0
-0.16094 0.0226189 0.0
-0.169968 0.0288125 0.0
-0.176784 0.0361384 0.0
-0.180722 0.0445729 0.0
-0.181085 0.0539993 0.0
-0.177191 0.0641815 0.0
-0.168445 0.0747487 0.0
-0.154391 0.0851884 0.0
-0.134757 0.0948416 0.0
-0.109458 0.102924 0.0
-0.0785309 0.108586 0.0
-0.0418774 0.111006 0.0
0.00108814 0.10948 0.0
0.0519636 0.103435 0.0
0.114206 0.0927333 0.0
0.193743 0.0773167 0.0
0.299468 0.0577441 0.0
0.442819 0.0356379 0.0
0.634294 0.013858 0.0
0.873147 0.00165565 0.0
-0.0125659 1.87304e-05 0.0
-0.0338775 3.81751e-06 0.0
-0.0525476 -0.000118987 0.0
-0.0693683 -0.000325948 0.0
-0.0849365 -0.000548282 0.0
-0.0996926 -0.000675532 0.0
-0.113917 -0.000564562 0.0
-0.127736 -4.9016e-05 0.0
-0.141107 0.00105164 0.0
-0.15382 0.00292075 0.0
-0.165517 0.00573264 0.0
-0.175687 0.00963753 0.0
-0.183687 0.0147451 0.0
-0.188776 0.0211042 0.0
-0.190152 0.0286849 0.0
-0.187007 0.0373417 0.0
-0.178606 0.0467982 0.0
-0.164339 0.0566316 0.0
-0.143781 0.0662484 0.0
-0.116733 0.0748823 0.0
-0.0832007 0.0816614 0.0
-0.0431279 0.0857076 0.0
0.00388688 0.0862456 0.0
0.05916 0.0826118 0.0
0.125927 0.074666 0.0
0.209701 0.0623986 0.0
0.318591 0.0463819 0.0
0.462632 0.0281946 0.0
0.650298 0.0105097 0.0
0.879377 0.00102314 0.0
-0.012414 -8.04588e-05 0.0
-0.0334077 -0.000618853 0.0
-0.0517996 -0.00177133 0.0
-0.0684247 -0.00332775 0.0
-0.0839148 -0.00515682 0.0
-0.0987396 -0.00711145 0.0
-0.113203 -0.00901889 0.0
-0.127443 -0.0106906 0.0
-0.141429 -0.0119249 0.0
-0.154955 -0.0125113 0.0
-0.16765 -0.0122393 0.0
-0.178977 -0.0109117 0.0
-0.188253 -0.00835835 0.0
-0.194675 -0.00445572 0.0
-0.19735 0.000867955 0.0
-0.19533 0.00757167 0.0
-0.187751 0.0155011 0.0
-0.173844 0.0243638 0.0
-0.153004 0.0336801 0.0
-0.124866 0.0427589 0.0
-0.0893603 0.050734 0.0
-0.0464194 0.0566848 0.0
0.0042108 0.0597617 0.0
0.063514 0.0590466 0.0
0.134422 0.0544163 0.0
0.222041 0.0458802 0.0
0.333739 0.0339844 0.0
0.47831 0.0202085 0.0
0.662613 0.0069689 0.0
0.883708 0.000358368 0.0
-0.011923 -0.000183893 0.0
-0.0321073 -0.00125461 0.0
-0.0498494 -0.00344246 0.0
-0.0659845 -0.00634997 0.0
-0.0811508 -0.00979008 0.0
-0.0958291 -0.0135895 0.0
-0.110337 -0.0175575 0.0
-0.124827 -0.0214928 0.0
-0.139281 -0.0251799 0.0
-0.153501 -0.0283876 0.0
-0.167113 -0.0308743 0.0
-0.179564 -0.032398 0.0
-0.190145 -0.032728 0.0
-0.198002 -0.0316636 0.0
-0.202178 -0.0290494 0.0
-0.201652 -0.0247953 0.0
-0.195427 -0.0189072 0.0
-0.182568 -0.011533 0.0
-0.162241 -0.00298845 0.0
-0.133775 0.00622912 0.0
-0.0971018 0.0152919 0.0
-0.0520282 0.0232721 0.0
0.00164546 0.0292441 0.0
0.064511 0.0320143 0.0
0.139101 0.0313133 0.0
0.230144 0.027184 0.0
0.344321 0.0200951 0.0
0.48935 0.0113686 0.0
0.67089 0.00308574 0.0
0.885999 -0.000374258 0.0
-0.0110945 -0.000285529 0.0
-0.0299915 -0.00186712 0.0
-0.0467243 -0.0050402 0.0
-0.0620796 -0.00923358 0.0
-0.0766702 -0.0142171 0.0
-0.090968 -0.0198052 0.0
-0.105295 -0.0258036 0.0
-0.119816 -0.0320126 0.0
-0.134531 -0.0382151 0.0
-0.149259 -0.0441705 0.0
-0.163639 -0.0496145 0.0
-0.177123 -0.0542645 0.0
-0.188988 -0.0578285 0.0
-0.198355 -0.0600203 0.0
-0.204214 -0.0605762 0.0
-0.205474 -0.0592755 0.0
-0.201022 -0.0559766 0.0
-0.18978 -0.0506622 0.0
-0.170763 -0.0434705 0.0
-0.143162 -0.0347032 0.0
-0.106473 -0.0249535 0.0
-0.0603568 -0.0151137 0.0
-0.00453846 -0.0062109 0.0
0.0614163 0.000625319 0.0
0.139278 0.00453977 0.0
0.233307 0.00562858 0.0
0.349649 0.00418475 0.0
0.495167 0.0013211 0.0
0.674803 -0.00125354 0.0
0.88602 -0.0011643 0.0
-0.009951 -0.000377355 0.0
-0.0271229 -0.00241187 0.0
-0.0425152 -0.00645513 0.0
-0.0568145 -0.0117921 0.0
-0.0705752 -0.0181674 0.0
-0.08424 -0.0254002 0.0
-0.0981261 -0.0333095 0.0
-0.112411 -0.0417134 0.0
-0.127118 -0.0504094 0.0
-0.142097 -0.0591621 0.0
-0.157014 -0.0676976 0.0
-0.171347 -0.0757028 0.0
-0.184388 -0.0828308 0.0
-0.195255 -0.0887113 0.0
-0.202921 -0.0929664 0.0
-0.206243 -0.0952329 0.0
-0.204021 -0.0951959 0.0
-0.195042 -0.0926332 0.0
-0.178144 -0.0874574 0.0
-0.152296 -0.0797596 0.0
-0.116699 -0.0699089 0.0
-0.0707399 -0.0586199 0.0
-0.0139927 -0.0468988 0.0
0.0538195 -0.0357845 0.0
0.134049 -0.0266803 0.0
0.230539 -0.0195284 0.0
0.348743 -0.0143098 0.0
0.494788 -0.0102402 0.0
0.673256 -0.0061433 0.0
0.883505 -0.00201962 0.0
-0.00854093 -0.000450099 0.0
-0.0236206 -0.00283979 0.0
-0.0373875 -0.00756895 0.0
-0.0503787 -0.0138244 0.0
-0.0630594 -0.0213482 0.0
-0.0758253 -0.0299818 0.0
-0.08898 -0.0395753 0.0
-0.102714 -0.0499818 0.0
-0.117078 -0.0610316 0.0
-0.131967 -0.0725133 0.0
-0.147095 -0.0841615 0.0
-0.161987 -0.0956506 0.0
-0.175978 -0.106594 0.0
-0.188219 -0.116549 0.0
-0.197693 -0.125029 0.0
-0.203247 -0.131525 0.0
-0.203625 -0.135534 0.0
-0.197517 -0.136604 0.0
-0.183608 -0.134381 0.0
-0.160645 -0.128677 0.0
-0.127511 -0.119553 0.0
-0.083246 -0.107437 0.0
-0.0271027 -0.0931827 0.0
0.0413838 -0.0776538 0.0
0.122981 -0.0629175 0.0
0.221005 -0.0489308 0.0
0.340453 -0.0359494 0.0
0.487065 -0.023694 0.0
0.665707 -0.0118066 0.0
0.878176 -0.00301295 0.0
-0.00694018 -0.00049441 0.0
-0.0196622 -0.00310282 0.0
-0.0315829 -0.00826692 0.0
-0.0430506 -0.015135 0.0
-0.0544167 -0.0234706 0.0
-0.0660144 -0.0331546 0.0
-0.0781266 -0.0440839 0.0
-0.0909542 -0.0561636 0.0
-0.104585 -0.0692754 0.0
-0.118965 -0.0832535 0.0
-0.133874 -0.0978657 0.0
-0.148913 -0.1128 0.0
-0.163488 -0.127656 0.0
-0.176819 -0.141943 0.0
-0.187943 -0.155089 0.0
-0.195737 -0.166447 0.0
-0.198939 -0.175332 0.0
-0.196188 -0.181048 0.0
-0.186058 -0.182946 0.0
-0.167102 -0.180488 0.0
-0.137907 -0.173339 0.0
-0.0971322 -0.161507 0.0
-0.0435576 -0.145499 0.0
0.0238383 -0.125793 0.0
0.105361 -0.105042 0.0
0.203693 -0.0834721 0.0
0.323609 -0.0615756 0.0
0.470818 -0.0397362 0.0
0.651096 -0.0186414 0.0
0.869492 -0.00424197 0.0
-0.00524984 -0.00050226 0.0
-0.0154776 -0.00316098 0.0
-0.0254133 -0.00845402 0.0
-0.0351932 -0.0155597 0.0
-0.0450403 -0.024286 0.0
-0.0552154 -0.0345659 0.0
-0.0659738 -0.0463553 0.0
-0.0775238 -0.0596238 0.0
-0.0899897 -0.0743221 0.0
-0.103378 -0.0903527 0.0
-0.117549 -0.107546 0.0
-0.132198 -0.125637 0.0
-0.146835 -0.144252 0.0
-0.160787 -0.162894 0.0
-0.173189 -0.18094 0.0
-0.183001 -0.197648 0.0
-0.189018 -0.21217 0.0
-0.189891 -0.223585 0.0
-0.184146 -0.230936 0.0
-0.170211 -0.2333 0.0
-0.146435 -0.229869 0.0
-0.111112 -0.220095 0.0
-0.0624816 -0.203889 0.0
0.00121807 -0.181349 0.0
0.0806857 -0.154328 0.0
0.177639 -0.124616 0.0
0.296849 -0.0926456 0.0
0.444467 -0.0595722 0.0
0.627933 -0.0273414 0.0
0.856635 -0.00588425 0.0
-0.00358976 -0.00046846 0.0
-0.0113357 -0.00299008 0.0
-0.0192439 -0.00807323 0.0
-0.027238 -0.0149965 0.0
-0.035412 -0.0236301 0.0
-0.0439501 -0.0339649 0.0
-0.0530736 -0.0460194 0.0
-0.062992 -0.0598341 0.0
-0.0738607 -0.0754398 0.0
-0.0857461 -0.0928277 0.0
-0.0985956 -0.11192 0.0
-0.112213 -0.132541 0.0
-0.126238 -0.154392 0.0
-0.140138 -0.177027 0.0
-0.153195 -0.199839 0.0
-0.16451 -0.222049 0.0
-0.173001 -0.242712 0.0
-0.177413 -0.260728 0.0
-0.17632 -0.274872 0.0
-0.168123 -0.283837 0.0
-0.151045 -0.286306 0.0
-0.123103 -0.281061 0.0
-0.0820672 -0.2672 0.0
-0.0254658 -0.244281 0.0
0.0489178 -0.212096 0.0
0.142097 -0.174304 0.0
0.258742 -0.131407 0.0
0.406026 -0.0852486 0.0
0.594065 -0.0392259 0.0
0.83824 -0.00832974 0.0
-0.00208796 -0.000392007 0.0
-0.00752065 -0.00258915 0.0
-0.0134636 -0.00712385 0.0
-0.0196548 -0.0134372 0.0
-0.0260737 -0.0214709 0.0
-0.0328315 -0.0312688 0.0
-0.0401104 -0.0429056 0.0
-0.0481097 -0.0564867 0.0
-0.0570034 -0.0721237 0.0
-0.0669066 -0.0899066 0.0
-0.0778463 -0.109873 0.0
-0.0897379 -0.131974 0.0
-0.102364 -0.156042 0.0
-0.115356 -0.181754 0.0
-0.128183 -0.208601 0.0
-0.140141 -0.235867 0.0
-0.150347 -0.262612 0.0
-0.157729 -0.287664 0.0
-0.161022 -0.309622 0.0
-0.158739 -0.326878 0.0
-0.149137 -0.337644 0.0
-0.13015 -0.340022 0.0
-0.0992671 -0.332164 0.0
-0.0533639 -0.312498 0.0
0.0113449 -0.279269 0.0
0.0970937 -0.234797 0.0
0.208059 -0.181118 0.0
0.353043 -0.120187 0.0
0.546225 -0.0568676 0.0
0.811776 -0.0124627 0.0
-0.000866209 -0.00027713 0.0
-0.00430064 -0.00198659 0.0
-0.0084445 -0.00567716 0.0
-0.0129063 -0.0109961 0.0
-0.0175816 -0.0179531 0.0
-0.0225204 -0.0266289 0.0
-0.0278619 -0.0371348 0.0
-0.0337813 -0.0496218 0.0
-0.0404505 -0.0642661 0.0
-0.0480097 -0.0812482 0.0
-0.056544 -0.100725 0.0
-0.0660635 -0.122799 0.0
-0.0764838 -0.147473 0.0
-0.0876088 -0.174618 0.0
-0.0991139 -0.203922 0.0
-0.110531 -0.234853 0.0
-0.121234 -0.266623 0.0
-0.130425 -0.298155 0.0
-0.137113 -0.328057 0.0
-0.14008 -0.354607 0.0
-0.137824 -0.375733 0.0
-0.128456 -0.38902 0.0
-0.109524 -0.391754 0.0
-0.0776891 -0.381071 0.0
-0.0283139 -0.354013 0.0
0.0443972 -0.307581 0.0
0.144531 -0.245692 0.0
0.282901 -0.169699 0.0
0.479575 -0.0851644 0.0
0.772367 -0.0202709 0.0
-2.31056e-05 -0.000134523 0.0
-0.00188936 -0.00124572 0.0
-0.00449137 -0.00388882 0.0
-0.00739046 -0.00792961 0.0
-0.0104427 -0.0134282 0.0
-0.0136559 -0.0204764 0.0
-0.0171263 -0.0291925 0.0
-0.0209903 -0.03974 0.0
-0.0253934 -0.0523255 0.0
-0.0304692 -0.0671864 0.0
-0.0363248 -0.0845727 0.0
-0.0430274 -0.104719 0.0
-0.0505918 -0.127812 0.0
-0.0589665 -0.153945 0.0
-0.0680199 -0.183078 0.0
-0.077524 -0.21498 0.0
-0.0871388 -0.249183 0.0
-0.0963947 -0.284921 0.0
-0.104669 -0.321081 0.0
-0.111151 -0.356139 0.0
-0.11478 -0.388094 0.0
-0.114129 -0.414396 0.0
-0.107208 -0.43186 0.0
-0.0910715 -0.43662 0.0
-0.0611402 -0.424112 0.0
-0.0102824 -0.388829 0.0
0.0711363 -0.326798 0.0
0.194752 -0.240162 0.0
0.38813 -0.132452 0.0
0.71073 -0.0359752 0.0
0.000385135 1.54803e-05 0.0
-0.000402487 -0.000473348 0.0