# vtk DataFile Version 3.0
Malha 2D com triângulos e temperatura
ASCII
DATASET UNSTRUCTURED_GRID

POINTS 961 double
0 0 0
1 0 0
1 1 0
0 1 0
0.0333333 0 0
0.0666667 0 0
0.1 0 0
0.133333 0 0
0.166667 0 0
0.2 0 0
0.233333 0 0
0.266667 0 0
0.3 0 0
0.333333 0 0
0.366667 0 0
0.4 0 0
0.433333 0 0
0.466667 0 0
0.5 0 0
0.533333 0 0
0.566667 0 0
0.6 0 0
0.633333 0 0
0.666667 0 0
0.7 0 0
0.733333 0 0
0.766667 0 0
0.8 0 0
0.833333 0 0
0.866667 0 0
0.9 0 0
0.933333 0 0
0.966667 0 0
1 0.0333333 0
1 0.0666667 0
1 0.1 0
1 0.133333 0
1 0.166667 0
1 0.2 0
1 0.233333 0
1 0.266667 0
1 0.3 0
1 0.333333 0
1 0.366667 0
1 0.4 0
1 0.433333 0
1 0.466667 0
1 0.5 0
1 0.533333 0
1 0.566667 0
1 0.6 0
1 0.633333 0
1 0.666667 0
1 0.7 0
1 0.733333 0
1 0.766667 0
1 0.8 0
1 0.833333 0
1 0.866667 0
1 0.9 0
1 0.933333 0
1 0.966667 0
0.966667 1 0
0.933333 1 0
0.9 1 0
0.866667 1 0
0.833333 1 0
0.8 1 0
0.766667 1 0
0.733333 1 0
0.7 1 0
0.666667 1 0
0.633333 1 0
0.6 1 0
0.566667 1 0
0.533333 1 0
0.5 1 0
0.466667 1 0
0.433333 1 0
0.4 1 0
0.366667 1 0
0.333333 1 0
0.3 1 0
0.266667 1 0
0.233333 1 0
0.2 1 0
0.166667 1 0
0.133333 1 0
0.1 1 0
0.0666667 1 0
0.0333333 1 0
0 0.966667 0
0 0.933333 0
0 0.9 0
0 0.866667 0
0 0.833333 0
0 0.8 0
0 0.766667 0
0 0.733333 0
0 0.7 0
0 0.666667 0
0 0.633333 0
0 0.6 0
0 0.566667 0
0 0.533333 0
0 0.5 0
0 0.466667 0
0 0.433333 0
0 0.4 0
0 0.366667 0
0 0.333333 0
0 0.3 0
0 0.266667 0
0 0.233333 0
0 0.2 0
0 0.166667 0
0 0.133333 0
0 0.1 0
0 0.0666667 0
0 0.0333333 0
0.0333333 0.0333333 0
0.0333333 0.0666667 0
0.0333333 0.1 0
0.0333333 0.133333 0
0.0333333 0.166667 0
0.0333333 0.2 0
0.0333333 0.233333 0
0.0333333 0.266667 0
0.0333333 0.3 0
0.0333333 0.333333 0
0.0333333 0.366667 0
0.0333333 0.4 0
0.0333333 0.433333 0
0.0333333 0.466667 0
0.0333333 0.5 0
0.0333333 0.533333 0
0.0333333 0.566667 0
0.0333333 0.6 0
0.0333333 0.633333 0
0.0333333 0.666667 0
0.0333333 0.7 0
0.0333333 0.733333 0
0.0333333 0.766667 0
0.0333333 0.8 0
0.0333333 0.833333 0
0.0333333 0.866667 0
0.0333333 0.9 0
0.0333333 0.933333 0
0.0333333 0.966667 0
0.0666667 0.0333333 0
0.0666667 0.0666667 0
0.0666667 0.1 0
0.0666667 0.133333 0
0.0666667 0.166667 0
0.0666667 0.2 0
0.0666667 0.233333 0
0.0666667 0.266667 0
0.0666667 0.3 0
0.0666667 0.333333 0
0.0666667 0.366667 0
0.0666667 0.4 0
0.0666667 0.433333 0
0.0666667 0.466667 0
0.0666667 0.5 0
0.0666667 0.533333 0
0.0666667 0.566667 0
0.0666667 0.6 0
0.0666667 0.633333 0
0.0666667 0.666667 0
0.0666667 0.7 0
0.0666667 0.733333 0
0.0666667 0.766667 0
0.0666667 0.8 0
0.0666667 0.833333 0
0.0666667 0.866667 0
0.0666667 0.9 0
0.0666667 0.933333 0
0.0666667 0.966667 0
0.1 0.0333333 0
0.1 0.0666667 0
0.1 0.1 0
0.1 0.133333 0
0.1 0.166667 0
0.1 0.2 0
0.1 0.233333 0
0.1 0.266667 0
0.1 0.3 0
0.1 0.333333 0
0.1 0.366667 0
0.1 0.4 0
0.1 0.433333 0
0.1 0.466667 0
0.1 0.5 0
0.1 0.533333 0
0.1 0.566667 0
0.1 0.6 0
0.1 0.633333 0
0.1 0.666667 0
0.1 0.7 0
0.1 0.733333 0
0.1 0.766667 0
0.1 0.8 0
0.1 0.833333 0
0.1 0.866667 0
0.1 0.9 0
0.1 0.933333 0
0.1 0.966667 0
0.133333 0.0333333 0
0.133333 0.0666667 0
0.133333 0.1 0
0.133333 0.133333 0
0.133333 0.166667 0
0.133333 0.2 0
0.133333 0.233333 0
0.133333 0.266667 0
0.133333 0.3 0
0.133333 0.333333 0
0.133333 0.366667 0
0.133333 0.4 0
0.133333 0.433333 0
0.133333 0.466667 0
0.133333 0.5 0
0.133333 0.533333 0
0.133333 0.566667 0
0.133333 0.6 0
0.133333 0.633333 0
0.133333 0.666667 0
0.133333 0.7 0
0.133333 0.733333 0
0.133333 0.766667 0
0.133333 0.8 0
0.133333 0.833333 0
0.133333 0.866667 0
0.133333 0.9 0
0.133333 0.933333 0
0.133333 0.966667 0
0.166667 0.0333333 0
0.166667 0.0666667 0
0.166667 0.1 0
0.166667 0.133333 0
0.166667 0.166667 0
0.166667 0.2 0
0.166667 0.233333 0
0.166667 0.266667 0
0.166667 0.3 0
0.166667 0.333333 0
0.166667 0.366667 0
0.166667 0.4 0
0.166667 0.433333 0
0.166667 0.466667 0
0.166667 0.5 0
0.166667 0.533333 0
0.166667 0.566667 0
0.166667 0.6 0
0.166667 0.633333 0
0.166667 0.666667 0
0.166667 0.7 0
0.166667 0.733333 0
0.166667 0.766667 0
0.166667 0.8 0
0.166667 0.833333 0
0.166667 0.866667 0
0.166667 0.9 0
0.166667 0.933333 0
0.166667 0.966667 0
0.2 0.0333333 0
0.2 0.0666667 0
0.2 0.1 0
0.2 0.133333 0
0.2 0.166667 0
0.2 0.2 0
0.2 0.233333 0
0.2 0.266667 0
0.2 0.3 0
0.2 0.333333 0
0.2 0.366667 0
0.2 0.4 0
0.2 0.433333 0
0.2 0.466667 0
0.2 0.5 0
0.2 0.533333 0
0.2 0.566667 0
0.2 0.6 0
0.2 0.633333 0
0.2 0.666667 0
0.2 0.7 0
0.2 0.733333 0
0.2 0.766667 0
0.2 0.8 0
0.2 0.833333 0
0.2 0.866667 0
0.2 0.9 0
0.2 0.933333 0
0.2 0.966667 0
0.233333 0.0333333 0
0.233333 0.0666667 0
0.233333 0.1 0
0.233333 0.133333 0
0.233333 0.166667 0
0.233333 0.2 0
0.233333 0.233333 0
0.233333 0.266667 0
0.233333 0.3 0
0.233333 0.333333 0
0.233333 0.366667 0
0.233333 0.4 0
0.233333 0.433333 0
0.233333 0.466667 0
0.233333 0.5 0
0.233333 0.533333 0
0.233333 0.566667 0
0.233333 0.6 0
0.233333 0.633333 0
0.233333 0.666667 0
0.233333 0.7 0
0.233333 0.733333 0
0.233333 0.766667 0
0.233333 0.8 0
0.233333 0.833333 0
0.233333 0.866667 0
0.233333 0.9 0
0.233333 0.933333 0
0.233333 0.966667 0
0.266667 0.0333333 0
0.266667 0.0666667 0
0.266667 0.1 0
0.266667 0.133333 0
0.266667 0.166667 0
0.266667 0.2 0
0.266667 0.233333 0
0.266667 0.266667 0
0.266667 0.3 0
0.266667 0.333333 0
0.266667 0.366667 0
0.266667 0.4 0
0.266667 0.433333 0
0.266667 0.466667 0
0.266667 0.5 0
0.266667 0.533333 0
0.266667 0.566667 0
0.266667 0.6 0
0.266667 0.633333 0
0.266667 0.666667 0
0.266667 0.7 0
0.266667 0.733333 0
0.266667 0.766667 0
0.266667 0.8 0
0.266667 0.833333 0
0.266667 0.866667 0
0.266667 0.9 0
0.266667 0.933333 0
0.266667 0.966667 0
0.3 0.0333333 0
0.3 0.0666667 0
0.3 0.1 0
0.3 0.133333 0
0.3 0.166667 0
0.3 0.2 0
0.3 0.233333 0
0.3 0.266667 0
0.3 0.3 0
0.3 0.333333 0
0.3 0.366667 0
0.3 0.4 0
0.3 0.433333 0
0.3 0.466667 0
0.3 0.5 0
0.3 0.533333 0
0.3 0.566667 0
0.3 0.6 0
0.3 0.633333 0
0.3 0.666667 0
0.3 0.7 0
0.3 0.733333 0
0.3 0.766667 0
0.3 0.8 0
0.3 0.833333 0
0.3 0.866667 0
0.3 0.9 0
0.3 0.933333 0
0.3 0.966667 0
0.333333 0.0333333 0
0.333333 0.0666667 0
0.333333 0.1 0
0.333333 0.133333 0
0.333333 0.166667 0
0.333333 0.2 0
0.333333 0.233333 0
0.333333 0.266667 0
0.333333 0.3 0
0.333333 0.333333 0
0.333333 0.366667 0
0.333333 0.4 0
0.333333 0.433333 0
0.333333 0.466667 0
0.333333 0.5 0
0.333333 0.533333 0
0.333333 0.566667 0
0.333333 0.6 0
0.333333 0.633333 0
0.333333 0.666667 0
0.333333 0.7 0
0.333333 0.733333 0
0.333333 0.766667 0
0.333333 0.8 0
0.333333 0.833333 0
0.333333 0.866667 0
0.333333 0.9 0
0.333333 0.933333 0
0.333333 0.966667 0
0.366667 0.0333333 0
0.366667 0.0666667 0
0.366667 0.1 0
0.366667 0.133333 0
0.366667 0.166667 0
0.366667 0.2 0
0.366667 0.233333 0
0.366667 0.266667 0
0.366667 0.3 0
0.366667 0.333333 0
0.366667 0.366667 0
0.366667 0.4 0
0.366667 0.433333 0
0.366667 0.466667 0
0.366667 0.5 0
0.366667 0.533333 0
0.366667 0.566667 0
0.366667 0.6 0
0.366667 0.633333 0
0.366667 0.666667 0
0.366667 0.7 0
0.366667 0.733333 0
0.366667 0.766667 0
0.366667 0.8 0
0.366667 0.833333 0
0.366667 0.866667 0
0.366667 0.9 0
0.366667 0.933333 0
0.366667 0.966667 0
0.4 0.0333333 0
0.4 0.0666667 0
0.4 0.1 0
0.4 0.133333 0
0.4 0.166667 0
0.4 0.2 0
0.4 0.233333 0
0.4 0.266667 0
0.4 0.3 0
0.4 0.333333 0
0.4 0.366667 0
0.4 0.4 0
0.4 0.433333 0
0.4 0.466667 0
0.4 0.5 0
0.4 0.533333 0
0.4 0.566667 0
0.4 0.6 0
0.4 0.633333 0
0.4 0.666667 0
0.4 0.7 0
0.4 0.733333 0
0.4 0.766667 0
0.4 0.8 0
0.4 0.833333 0
0.4 0.866667 0
0.4 0.9 0
0.4 0.933333 0
0.4 0.966667 0
0.433333 0.0333333 0
0.433333 0.0666667 0
0.433333 0.1 0
0.433333 0.133333 0
0.433333 0.166667 0
0.433333 0.2 0
0.433333 0.233333 0
0.433333 0.266667 0
0.433333 0.3 0
0.433333 0.333333 0
0.433333 0.366667 0
0.433333 0.4 0
0.433333 0.433333 0
0.433333 0.466667 0
0.433333 0.5 0
0.433333 0.533333 0
0.433333 0.566667 0
0.433333 0.6 0
0.433333 0.633333 0
0.433333 0.666667 0
0.433333 0.7 0
0.433333 0.733333 0
0.433333 0.766667 0
0.433333 0.8 0
0.433333 0.833333 0
0.433333 0.866667 0
0.433333 0.9 0
0.433333 0.933333 0
0.433333 0.966667 0
0.466667 0.0333333 0
0.466667 0.0666667 0
0.466667 0.1 0
0.466667 0.133333 0
0.466667 0.166667 0
0.466667 0.2 0
0.466667 0.233333 0
0.466667 0.266667 0
0.466667 0.3 0
0.466667 0.333333 0
0.466667 0.366667 0
0.466667 0.4 0
0.466667 0.433333 0
0.466667 0.466667 0
0.466667 0.5 0
0.466667 0.533333 0
0.466667 0.566667 0
0.466667 0.6 0
0.466667 0.633333 0
0.466667 0.666667 0
0.466667 0.7 0
0.466667 0.733333 0
0.466667 0.766667 0
0.466667 0.8 0
0.466667 0.833333 0
0.466667 0.866667 0
0.466667 0.9 0
0.466667 0.933333 0
0.466667 0.966667 0
0.5 0.0333333 0
0.5 0.0666667 0
0.5 0.1 0
0.5 0.133333 0
0.5 0.166667 0
0.5 0.2 0
0.5 0.233333 0
0.5 0.266667 0
0.5 0.3 0
0.5 0.333333 0
0.5 0.366667 0
0.5 0.4 0
0.5 0.433333 0
0.5 0.466667 0
0.5 0.5 0
0.5 0.533333 0
0.5 0.566667 0
0.5 0.6 0
0.5 0.633333 0
0.5 0.666667 0
0.5 0.7 0
0.5 0.733333 0
0.5 0.766667 0
0.5 0.8 0
0.5 0.833333 0
0.5 0.866667 0
0.5 0.9 0
0.5 0.933333 0
0.5 0.966667 0
0.533333 0.0333333 0
0.533333 0.0666667 0
0.533333 0.1 0
0.533333 0.133333 0
0.533333 0.166667 0
0.533333 0.2 0
0.533333 0.233333 0
0.533333 0.266667 0
0.533333 0.3 0
0.533333 0.333333 0
0.533333 0.366667 0
0.533333 0.4 0
0.533333 0.433333 0
0.533333 0.466667 0
0.533333 0.5 0
0.533333 0.533333 0
0.533333 0.566667 0
0.533333 0.6 0
0.533333 0.633333 0
0.533333 0.666667 0
0.533333 0.7 0
0.533333 0.733333 0
0.533333 0.766667 0
0.533333 0.8 0
0.533333 0.833333 0
0.533333 0.866667 0
0.533333 0.9 0
0.533333 0.933333 0
0.533333 0.966667 0
0.566667 0.0333333 0
0.566667 0.0666667 0
0.566667 0.1 0
0.566667 0.133333 0
0.566667 0.166667 0
0.566667 0.2 0
0.566667 0.233333 0
0.566667 0.266667 0
0.566667 0.3 0
0.566667 0.333333 0
0.566667 0.366667 0
0.566667 0.4 0
0.566667 0.433333 0
0.566667 0.466667 0
0.566667 0.5 0
0.566667 0.533333 0
0.566667 0.566667 0
0.566667 0.6 0
0.566667 0.633333 0
0.566667 0.666667 0
0.566667 0.7 0
0.566667 0.733333 0
0.566667 0.766667 0
0.566667 0.8 0
0.566667 0.833333 0
0.566667 0.866667 0
0.566667 0.9 0
0.566667 0.933333 0
0.566667 0.966667 0
0.6 0.0333333 0
0.6 0.0666667 0
0.6 0.1 0
0.6 0.133333 0
[...]
CELL_DATA 900
VECTORS velocity double
5.22879e-05 -1.57476e-05 0.0
0.000158529 -0.000228861 0.0
0.000248415 -0.000675913 0.0
0.000317426 -0.00127312 0.0
0.000364116 -0.00199623 0.0
0.000386091 -0.00278596 0.0
0.000379276 -0.00359214 0.0
0.000337516 -0.00434521 0.0
0.000252646 -0.0049643 0.0
0.000114483 -0.00534712 0.0
-8.91956e-05 -0.00536794 0.0
-0.000372952 -0.00487422 0.0
-0.000753144 -0.00367787 0.0
-0.00124845 -0.0015625 0.0
-0.00187797 0.00174318 0.0
-0.00265592 0.0065137 0.0
-0.00360132 0.0131004 0.0
-0.00474116 0.0217933 0.0
-0.00610592 0.0331206 0.0
-0.00775958 0.0472734 0.0
-0.00977302 0.0653157 0.0
-0.0123301 0.0868903 0.0
-0.015568 0.114965 0.0
-0.0199391 0.146611 0.0
-0.0253405 0.191504 0.0
-0.0322516 0.23476 0.0
-0.0369371 0.308741 0.0
-0.0327056 0.342708 0.0
0.0263483 0.435641 0.0
0.310689 0.234011 0.0
0.000194235 -3.49287e-05 0.0
0.000541012 -0.000328942 0.0
0.000827153 -0.000885897 0.0
0.00104573 -0.00161163 0.0
0.0011913 -0.00247747 0.0
0.00125449 -0.00341288 0.0
0.00122025 -0.0043548 0.0
0.00106702 -0.00521534 0.0
0.000766724 -0.00589123 0.0
0.000284752 -0.00625172 0.0
-0.000419991 -0.00613671 0.0
-0.00139523 -0.00535219 0.0
-0.00269388 -0.00366381 0.0
-0.00437514 -0.00080008 0.0
-0.00649343 0.00356222 0.0
-0.00908639 0.00975049 0.0
-0.0121992 0.0181453 0.0
-0.0158841 0.0290721 0.0
-0.0201884 0.0429767 0.0
-0.0252037 0.0600325 0.0
-0.0310081 0.0808059 0.0
-0.0378284 0.104888 0.0
-0.0457243 0.133239 0.0
-0.055087 0.163465 0.0
-0.0650673 0.197697 0.0
-0.0749427 0.226785 0.0
-0.0762372 0.255406 0.0
-0.0533022 0.251873 0.0
0.0664786 0.222819 0.0
0.442996 0.083161 0.0
0.000366553 -3.0556e-05 0.0
0.000980288 -0.000314326 0.0
0.00147776 -0.000862967 0.0
0.0018556 -0.00157773 0.0
0.00210427 -0.00243014 0.0
0.00220553 -0.00334998 0.0
0.00213076 -0.00427491 0.0
0.00183991 -0.00511734 0.0
0.00128136 -0.00577397 0.0
0.00039191 -0.00611315 0.0
-0.000902743 -0.00597376 0.0
-0.00268751 -0.0051596 0.0
-0.00505553 -0.00343641 0.0
-0.00810809 -0.000529586 0.0
-0.0119308 0.00387619 0.0
-0.0165766 0.0101051 0.0
-0.0220991 0.0185042 0.0
-0.0285357 0.0293841 0.0
-0.0358897 0.0430582 0.0
-0.0441541 0.0596661 0.0
-0.0532502 0.0793397 0.0
-0.0630926 0.10169 0.0
-0.0733012 0.126379 0.0
-0.0833035 0.151622 0.0
-0.0910186 0.175923 0.0
-0.0926422 0.193862 0.0
-0.0765295 0.200949 0.0
-0.0186039 0.182845 0.0
0.148926 0.131739 0.0
0.554184 0.038493 0.0
0.000526307 -2.83546e-05 0.0
0.00140028 -0.000301464 0.0
0.00210441 -0.000834124 0.0
0.00263711 -0.00152911 0.0
0.00298566 -0.00235827 0.0
0.00312358 -0.00325234 0.0
0.00300898 -0.0041498 0.0
0.00258339 -0.00496378 0.0
0.00177157 -0.00559143 0.0
0.000481759 -0.00590095 0.0
-0.00139349 -0.00573116 0.0
-0.00397574 -0.00488484 0.0
-0.0073972 -0.0031291 0.0
-0.0117987 -0.000188397 0.0
-0.0172881 0.00424234 0.0
-0.0239263 0.0104742 0.0
-0.0317584 0.0188219 0.0
-0.0407778 0.0295584 0.0
-0.0509005 0.0428906 0.0
-0.0619561 0.0588701 0.0
-0.0736248 0.0773532 0.0
-0.0854096 0.0978297 0.0
-0.0963903 0.119357 0.0
-0.105028 0.140265 0.0
-0.108102 0.157932 0.0
-0.0995505 0.168518 0.0
-0.0657735 0.165896 0.0
0.0208549 0.143573 0.0
0.217475 0.092965 0.0
0.626262 0.0241016 0.0
0.000677533 -2.7193e-05 0.0
0.00180153 -0.000288752 0.0
0.00270518 -0.000799577 0.0
0.00338717 -0.00146645 0.0
0.00383147 -0.00226186 0.0
0.00400344 -0.00311843 0.0
0.00384799 -0.00397583 0.0
0.00328817 -0.00474859 0.0
0.00222503 -0.00533497 0.0
0.000538186 -0.00560409 0.0
-0.00191273 -0.00539605 0.0
-0.0052851 -0.00451489 0.0
-0.00974852 -0.00273181 0.0
-0.0154799 0.000224602 0.0
-0.0225981 0.00464389 0.0
-0.031165 0.0108149 0.0
-0.0411989 0.0190156 0.0
-0.0526232 0.0294665 0.0
-0.0652291 0.0422795 0.0
-0.0786405 0.0574007 0.0
-0.0922444 0.0744944 0.0
-0.105109 0.0929104 0.0
-0.115761 0.111405 0.0
-0.121847 0.128334 0.0
-0.119226 0.140777 0.0
-0.100454 0.145859 0.0
-0.0510425 0.13761 0.0
0.0567775 0.114242 0.0
0.272132 0.067762 0.0
0.67426 0.0157609 0.0
0.000821995 -2.57688e-05 0.0
0.00218456 -0.000273323 0.0
0.00327877 -0.000757249 0.0
0.00410321 -0.00138919 0.0
0.00463817 -0.00214276 0.0
0.00484075 -0.00295329 0.0
0.00464257 -0.00376221 0.0
0.00394807 -0.00448628 0.0
0.00263454 -0.00502584 0.0
0.000553054 -0.00525226 0.0
-0.0024691 -0.00500856 0.0
-0.00662377 -0.00410256 0.0
-0.0121153 -0.00231223 0.0
-0.0191517 0.000624641 0.0
-0.0278516 0.00497834 0.0
-0.0382701 0.011011 0.0
-0.0503812 0.0189629 0.0
-0.0640162 0.0290006 0.0
-0.0788138 0.0411589 0.0
-0.0941655 0.0552909 0.0
-0.109141 0.0709427 0.0
-0.122378 0.0873561 0.0
-0.131881 0.103188 0.0
-0.134628 0.116794 0.0
-0.12578 0.125412 0.0
-0.0970844 0.126613 0.0
-0.0338824 0.115554 0.0
0.090297 0.0922204 0.0
0.317497 0.0508447 0.0
0.708776 0.0106446 0.0
0.000957937 -2.40631e-05 0.0
0.00254506 -0.00025509 0.0
0.00381878 -0.000707069 0.0
0.00477729 -0.00129743 0.0
0.00539704 -0.00200133 0.0
0.00562678 -0.00275757 0.0
0.00538485 -0.0035101 0.0
0.00455723 -0.00417887 0.0
0.00299763 -0.0046674 0.0
0.00052918 -0.00485101 0.0
-0.00305212 -0.00457744 0.0
-0.00797053 -0.0036612 0.0
-0.0144616 -0.00188942 0.0
-0.0227585 0.000985656 0.0
-0.0329707 0.00521241 0.0
-0.0451392 0.0110253 0.0
-0.0591808 0.0186284 0.0
-0.0748197 0.0281397 0.0
-0.091527 0.0395368 0.0
-0.108453 0.0526037 0.0
-0.124347 0.066826 0.0
-0.137444 0.081381 0.0
-0.145279 0.0949418 0.0
-0.144297 0.105878 0.0
-0.129146 0.11176 0.0
-0.0911675 0.110377 0.0
-0.0159586 0.0981844 0.0
0.120935 0.0755812 0.0
0.355499 0.0393356 0.0
0.734641 0.00745824 0.0
0.00108378 -2.20973e-05 0.0
0.00287894 -0.0002341 0.0
0.00431912 -0.000649151 0.0
0.00540192 -0.00119146 0.0
0.00609985 -0.00183808 0.0
0.00635334 -0.00253213 0.0
0.00606764 -0.0032208 0.0
0.00511061 -0.0038284 0.0
0.00331301 -0.00426292 0.0
0.00047095 -0.00440553 0.0
-0.00364927 -0.00411054 0.0
-0.0093018 -0.00320251 0.0
-0.0167494 -0.001479 0.0
-0.0262436 0.00128733 0.0
-0.0378797 0.00532143 0.0
-0.0516785 0.0108328 0.0
-0.0674913 0.0179916 0.0
-0.0849287 0.0268774 0.0
-0.10329 0.0374292 0.0
-0.121485 0.0493886 0.0
-0.137958 0.0622222 0.0
-0.150573 0.0750842 0.0
-0.156454 0.0867193 0.0
-0.151621 0.0955358 0.0
-0.130366 0.0994665 0.0
-0.0838828 0.0964314 0.0
0.00177674 0.0840866 0.0
0.148526 0.062684 0.0
0.387462 0.0311637 0.0
0.754532 0.00538279 0.0
0.00119814 -1.98645e-05 0.0
0.0031825 -0.00021041 0.0
0.00477424 -0.000583766 0.0
0.00597027 -0.00107189 0.0
0.0067391 -0.00165407 0.0
0.00701306 -0.0022786 0.0
0.0066847 -0.00289673 0.0
0.00560438 -0.00343833 0.0
0.00358086 -0.00381728 0.0
0.000384558 -0.00392259 0.0
-0.00424591 -0.00361718 0.0
-0.010592 -0.00273861 0.0
-0.0189397 -0.00109667 0.0
-0.0295489 0.00151169 0.0
-0.0425056 0.00528769 0.0
-0.0578022 0.0104193 0.0
-0.0752221 0.0170469 0.0
-0.0942618 0.0252235 0.0
-0.114052 0.0348665 0.0
-0.133275 0.0457008 0.0
-0.150085 0.0572028 0.0
-0.162012 0.0685395 0.0
-0.165815 0.0785478 0.0
-0.15718 0.0857012 0.0
-0.130158 0.0882513 0.0
-0.0759951 0.0842427 0.0
0.0186125 0.072324 0.0
0.173165 0.0524698 0.0
0.414496 0.0251309 0.0
0.77017 0.00398045 0.0
0.00129966 -1.7373e-05 0.0
0.00345217 -0.000184156 0.0
0.00517888 -0.000511338 0.0
0.00647588 -0.00093955 0.0
0.00730783 -0.00145067 0.0
0.00759927 -0.00199897 0.0
0.00723068 -0.00254067 0.0
0.00603588 -0.00301238 0.0
0.00380292 -0.00333547 0.0
0.000278245 -0.00340852 0.0
-0.00482492 -0.00310561 0.0
-0.0118124 -0.00227911 0.0
-0.02099 -0.000754717 0.0
-0.0326179 0.0016465 0.0
-0.0467784 0.00510271 0.0
-0.0634315 0.00978158 0.0
-0.082294 0.0158012 0.0
-0.102754 0.0231987 0.0
-0.123783 0.0318856 0.0
-0.14385 0.0415931 0.0
-0.160843 0.0518275 0.0
-0.171983 0.0618001 0.0
-0.173708 0.0704407 0.0
-0.161432 0.0763242 0.0
-0.129057 0.0779289 0.0
-0.0680152 0.0735014 0.0
0.0342034 0.0622843 0.0
0.195035 0.0441864 0.0
0.437468 0.0205103 0.0
0.782682 0.00300282 0.0
0.00138706 -1.46419e-05 0.0
0.00368462 -0.00015554 0.0
0.00552812 -0.000432439 0.0
0.0069128 -0.000795501 0.0
0.00779966 -0.00122954 0.0
0.00810599 -0.00169561 0.0
0.0077011 -0.00215574 0.0
0.00640349 -0.00255451 0.0
0.00398215 -0.00282236 0.0
0.000161573 -0.00286921 0.0
-0.00536788 -0.00258265 0.0
-0.0129336 -0.00183144 0.0
-0.0228573 -0.000460446 0.0
-0.0353968 0.00168622 0.0
-0.0506332 0.004765 0.0
-0.0684954 0.00892487 0.0
-0.0886387 0.0142687 0.0
-0.110352 0.0208281 0.0
-0.132462 0.0285218 0.0
-0.153244 0.0371065 0.0
-0.170338 0.0461337 0.0
-0.180685 0.0548847 0.0
-0.18043 0.0623785 0.0
-0.164758 0.0673181 0.0
-0.127484 0.0683269 0.0
-0.0603035 0.0639063 0.0
0.0484397 0.0535523 0.0
0.214329 0.0372976 0.0
0.457022 0.0168531 0.0
0.792811 0.00229722 0.0
0.00145917 -1.16984e-05 0.0
0.00387684 -0.000124824 0.0
0.00581754 -0.000347787 0.0
0.00727569 -0.000641046 0.0
0.00820892 -0.000992663 0.0
0.008528 -0.00137121 0.0
0.00809221 -0.00174536 0.0
0.00670633 -0.00206885 0.0
0.00412222 -0.0022827 0.0
4.47244e-05 -0.00230987 0.0
-0.00585608 -0.00205361 0.0
-0.0139263 -0.00140061 0.0
-0.0245008 -0.000216932 0.0
-0.0378347 0.00163081 0.0
-0.0540106 0.00427896 0.0
-0.0729305 0.00786029 0.0
-0.0941968 0.0124684 0.0
-0.117012 0.0181377 0.0
-0.140076 0.0248056 0.0
-0.161487 0.032269 0.0
-0.178663 0.040138 0.0
-0.188283 0.0477816 0.0
-0.186225 0.0543101 0.0
-0.167463 0.0585635 0.0
-0.12577 0.0592633 0.0
-0.0531349 0.0551557 0.0
0.0612201 0.0458095 0.0
0.231212 0.0314336 0.0
0.473642 0.0138715 0.0
0.801058 0.00176957 0.0
0.001515 -8.57636e-06 0.0
0.0040262 -9.23249e-05 0.0
0.00604327 -0.00025824 0.0
0.00755985 -0.000477708 0.0
0.00853062 -0.000742311 0.0
0.00886078 -0.00102878 0.0
0.00840096 -0.00131321 0.0
0.00694408 -0.00155957 0.0
0.00422713 -0.00172089 0.0
-6.21518e-05 -0.00173483 0.0
-0.00627141 -0.00152214 0.0
-0.014763 -0.000988906 0.0
-0.0258829 -2.38128e-05 0.0
-0.0398849 0.00148454 0.0
-0.0568569 0.00365404 0.0
-0.0766803 0.00660355 0.0
-0.0989154 0.0104221 0.0
-0.122693 0.0151538 0.0
-0.146606 0.0207632 0.0
-0.168599 0.0270986 0.0
-0.185888 0.0338411 0.0
-0.194909 0.04046 0.0
-0.191286 0.0461644 0.0
-0.169793 0.0499319 0.0
-0.124173 0.0505594 0.0
-0.0467208 0.046997 0.0
0.0724746 0.0387929 0.0
0.245826 0.0263108 0.0
0.487697 0.0113646 0.0
0.807773 0.00135856 0.0
0.0015537 -5.31537e-06 0.0
0.00413052 -5.84136e-05 0.0
0.0062021 -0.000164785 0.0
0.00776135 -0.000307221 0.0
0.00876059 -0.000481033 0.0
0.0091005 -0.000671625 0.0
0.00862475 -0.000863181 0.0
0.00711661 -0.00103084 0.0
0.00430073 -0.00114097 0.0
-0.000149605 -0.00114741 0.0
-0.00659719 -0.000990183 0.0
-0.0154185 -0.000595972 0.0
-0.0269693 0.000122464 0.0
-0.0415057 0.00125527 0.0
-0.0591242 0.00290355 0.0
-0.0796942 0.00517361 0.0
-0.102746 0.00815338 0.0
-0.127356 0.0119014 0.0
-0.15203 0.0164159 0.0
-0.174584 0.0216047 0.0
-0.192056 0.02723 0.0
-0.200656 0.0328726 0.0
-0.19576 0.0378523 0.0
-0.171942 0.0412838 0.0
-0.122905 0.0420335 0.0
-0.0412361 0.0392033 0.0
0.0821401 0.0322736 0.0
0.258276 0.0217031 0.0
0.499455 0.00918488 0.0
0.813193 0.00102291 0.0
0.00157466 -1.95871e-06 0.0
0.00418815 -2.3503e-05 0.0
0.00629152 -6.85266e-05 0.0
0.00787707 -0.000131521 0.0
0.00889542 -0.00021164 0.0
0.00924399 -0.000303326 0.0
0.00876141 -0.000399349 0.0
0.00722374 -0.000486822 0.0
0.00434616 -0.000546566 0.0
-0.000209581 -0.000549922 0.0
-0.006819 -0.000458047 0.0
-0.0158709 -0.000218977 0.0
-0.02773 0.000228177 0.0
-0.0426602 0.000953672 0.0
-0.0607704 0.00204372 0.0
-0.081926 0.00359166 0.0
-0.105641 0.00568683 0.0
-0.130957 0.00840458 0.0
-0.156315 0.0117812 0.0
-0.179428 0.015789 0.0
-0.197181 0.0202804 0.0
-0.205576 0.0249571 0.0
-0.19975 0.0292664 0.0
-0.174059 0.0324629 0.0
-0.122141 0.033492 0.0
-0.0368374 0.0315524 0.0
0.0901438 0.0260393 0.0
0.26862 0.0174164 0.0
0.509099 0.00721555 0.0
0.817479 0.000733098 0.0
0.00157746 1.44758e-06 0.0
0.004198 1.19613e-05 0.0
0.00630982 2.93399e-05 0.0
0.0079048 4.72926e-05 0.0
0.00893256 6.27974e-05 0.0
0.00928872 7.21891e-05 0.0
0.00880897 7.38351e-05 0.0
0.00726494 6.8072e-05 0.0
0.00436549 5.88035e-05 0.0
-0.000236009 5.56842e-05 0.0
-0.00692529 7.49517e-05 0.0
-0.0161019 0.000144421 0.0
-0.0281381 0.00029935 0.0
-0.0433166 0.000591686 0.0
-0.0617576 0.00109151 0.0
-0.083333 0.00187934 0.0
-0.107555 0.00304636 0.0
-0.13345 0.00468549 0.0
-0.159417 0.0068725 0.0
-0.183095 0.00964648 0.0
-0.201243 0.0129566 0.0
-0.209681 0.0166345 0.0
-0.20331 0.0202766 0.0
-0.176249 0.0232867 0.0
-0.122029 0.0247119 0.0
-0.033676 0.023806 0.0
0.0963906 0.0198658 0.0
0.276863 0.0132676 0.0
0.516733 0.00535215 0.0
0.820722 0.000465952 0.0
0.00156198 4.84264e-06 0.0
0.0041596 4.74797e-05 0.0
0.00625619 0.000127528 0.0
0.00784335 0.000226954 0.0
0.00887046 0.000338912 0.0
0.00923289 0.000450472 0.0
0.00876568 0.000550993 0.0
0.00723909 0.000627886 0.0
0.00435937 0.0006692 0.0
-0.000224596 0.00066441 0.0
-0.0069055 0.000605895 0.0
-0.0160928 0.000494974 0.0
-0.0281724 0.000341142 0.0
-0.0434465 0.000179118 0.0
-0.0620504 6.14193e-05 0.0
-0.0838728 5.45823e-05 0.0
-0.108439 0.000250939 0.0
-0.134779 0.000759945 0.0
-0.161275 0.00169597 0.0
-0.185521 0.00316356 0.0
-0.204184 0.00521112 0.0
-0.212931 0.00780823 0.0
-0.206439 0.0107233 0.0
-0.178572 0.0135299 0.0
-0.122689 0.0154165 0.0
-0.0319074 0.0156775 0.0
0.100748 0.0134982 0.0
0.282945 0.00906303 0.0
0.522375 0.00348897 0.0
0.822955 0.000198398 0.0
0.0015283 8.17898e-06 0.0
0.00407306 8.26038e-05 0.0
0.00613062 0.00022484 0.0
0.00769249 0.000405368 0.0
0.0087087 0.000613639 0.0
0.00907591 0.000827609 0.0
0.00863098 0.00102766 0.0
0.00714605 0.00118823 0.0
0.00432858 0.00128129 0.0
-0.000173032 0.00127575 0.0
-0.00675521 0.00113948 0.0
-0.0158362 0.000846576 0.0
-0.0278188 0.000378399 0.0
-0.0430339 -0.000252501 0.0
-0.0616279 -0.00101474 0.0
-0.0835163 -0.00185679 0.0
-0.108253 -0.00268512 0.0
-0.134887 -0.0033727 0.0
-0.161814 -0.0037638 0.0
-0.186611 -0.00368747 0.0
-0.205896 -0.00299666 0.0
-0.215227 -0.00159535 0.0
-0.209074 0.000457141 0.0
-0.181023 0.00294537 0.0
-0.124208 0.00527558 0.0
-0.0316964 0.00680121 0.0
0.103037 0.00661309 0.0
0.286731 0.00456515 0.0
0.525958 0.00149252 0.0
0.824153 -0.000101356 0.0
0.00147675 1.14061e-05 0.0
0.00393912 0.000116838 0.0
0.00593398 0.000319942 0.0
0.007453 0.000580183 0.0
0.00844766 0.000883565 0.0
0.00881757 0.00119932 0.0
0.00840388 0.0014992 0.0
0.00698391 0.00174504 0.0
0.00427033 0.00189307 0.0
-8.4706e-05 0.00189177 0.0
-0.00647764 0.00168449 0.0
-0.0153334 0.00121667 0.0
-0.0270724 0.00043988 0.0
-0.0420546 -0.000664473 0.0
-0.060445 -0.00209278 0.0
-0.0822008 -0.00381056 0.0
-0.10692 -0.00572749 0.0
-0.133695 -0.00769963 0.0
-0.160953 -0.00952743 0.0
-0.186282 -0.0109679 0.0
-0.206272 -0.0117662 0.0
-0.216398 -0.0116935 0.0
-0.211003 -0.0106293 0.0
-0.183463 -0.00858611 0.0
-0.126598 -0.0059135 0.0
-0.0332486 -0.00318145 0.0
0.102968 -0.00125797 0.0
0.28799 -0.000613629 0.0
0.527329 -0.000755304 0.0
0.824193 -0.000415801 0.0
0.00140795 1.44713e-05 0.0
0.0037592 0.00014968 0.0
0.00566812 0.000411479 0.0
0.00712673 0.000748985 0.0
0.00808879 0.0011451 0.0
0.00845843 0.00156094 0.0
0.00808351 0.00196022 0.0
0.00674984 0.00229289 0.0
0.00417937 0.00250015 0.0
3.25393e-05 0.00251061 0.0
-0.00608264 0.00224303 0.0
-0.014594 0.00161321 0.0
-0.0259375 0.000539083 0.0
-0.0405016 -0.00103505 0.0
-0.0584787 -0.00313914 0.0
-0.0798769 -0.0057645 0.0
-0.104356 -0.00883417 0.0
-0.131078 -0.0121958 0.0
-0.158533 -0.0156108 0.0
-0.184358 -0.0187605 0.0
-0.205154 -0.0212658 0.0
-0.21635 -0.0227304 0.0
-0.212168 -0.0228112 0.0
-0.185757 -0.0213174 0.0
-0.129626 -0.0183449 0.0
-0.0363497 -0.0143703 0.0
0.100435 -0.0101596 0.0
0.286197 -0.00649326 0.0
0.525899 -0.00325809 0.0
0.822917 -0.000742223 0.0
0.00132276 1.7328e-05 0.0
0.00353535 0.000180663 0.0
0.0053358 0.000498168 0.0
0.00671668 0.000909442 0.0
0.00763473 0.00139471 0.0
0.00800009 0.00190774 0.0
0.00766961 0.00240502 0.0
0.00644083 0.00282565 0.0
0.00404912 0.00309678 0.0
0.000168141 0.00312825 0.0
-0.00558425 0.00281432 0.0
-0.0136333 0.00204057 0.0
-0.0244255 0.000687492 0.0
-0.0383776 -0.00134281 0.0
-0.0557131 -0.00412173 0.0
-0.0765001 -0.00767788 0.0
-0.100478 -0.0119599 0.0
-0.126903 -0.0168201 0.0
-0.154369 -0.0219911 0.0
-0.180604 -0.0270816 0.0
-0.202276 -0.0315803 0.0
-0.214825 -0.0348999 0.0
-0.212391 -0.0364311 0.0
-0.187911 -0.0356972 0.0
-0.13354 -0.0324589 0.0
-0.0414384 -0.0270348 0.0
0.0950164 -0.0201627 0.0
0.281073 -0.0130676 0.0
0.521509 -0.0060828 0.0
0.820226 -0.00113087 0.0
0.00122226 1.99377e-05 0.0
0.00327025 0.000209375 0.0
0.00494074 0.000578841 0.0
0.00622697 0.00105937 0.0
0.00708933 0.001629 0.0
0.00744527 0.00223504 0.0
0.00716276 0.00282774 0.0
0.00605412 0.00333662 0.0
0.00387228 0.00367623 0.0
0.000309359 0.00373897 0.0
-0.00500061 0.00339555 0.0
-0.0124731 0.00250107 0.0
-0.0225577 0.000896326 0.0
-0.0356959 -0.00156444 0.0
-0.0521433 -0.00500301 0.0
-0.0720345 -0.00949767 0.0
-0.0952041 -0.0150388 0.0
-0.121031 -0.0215005 0.0
-0.148249 -0.0286028 0.0
-0.174739 -0.0358917 0.0
-0.197302 -0.0427229 0.0
-0.211463 -0.0482972 0.0
-0.211345 -0.0516974 0.0
-0.189712 -0.0520775 0.0
-0.138319 -0.0487739 0.0
-0.0487308 -0.0418271 0.0
0.0863084 -0.0319427 0.0
0.27214 -0.02087 0.0
0.513727 -0.00948841 0.0
0.815869 -0.00162385 0.0
0.00110773 2.2271e-05 0.0
0.0029671 0.000235466 0.0
0.00448747 0.000652471 0.0
0.00566284 0.00119679 0.0
0.00645775 0.00184476 0.0
0.00679805 0.00253825 0.0
0.00656472 0.00322236 0.0
0.00558768 0.00381851 0.0
0.00364138 0.00423037 0.0
0.000441863 0.00433481 0.0
-0.00435367 0.00398078 0.0
-0.0111422 0.00299338 0.0
-0.0203662 0.00117336 0.0
-0.0324843 -0.00167837 0.0
-0.0477821 -0.00574327 0.0
-0.0664622 -0.0111622 0.0
-0.0884664 -0.0179873 0.0
-0.113322 -0.0261379 0.0
-0.139951 -0.0353464 0.0
-0.166445 -0.0451166 0.0
-0.189824 -0.0546822 0.0
-0.205793 -0.0630208 0.0
-0.20856 -0.068872 0.0
-0.190783 -0.0709342 0.0
-0.143803 -0.0680074 0.0
-0.0583869 -0.0596614 0.0
0.0738142 -0.0464563 0.0
0.25868 -0.0306866 0.0
0.50182 -0.0138864 0.0
0.809416 -0.00229569 0.0
0.000980604 2.43122e-05 0.0
0.00262959 0.00025867 0.0
0.00398131 0.000718203 0.0
0.00503058 0.00131997 0.0
0.00574644 0.00203907 0.0
0.00606401 0.00281298 0.0
0.00587881 0.00358281 0.0
0.00504084 0.00426344 0.0
0.00334978 0.00474982 0.0
0.000550862 0.0049054 0.0
-0.00366811 0.0045604 0.0
-0.00967587 0.00351116 0.0
-0.017895 0.00152108 0.0
-0.0287882 -0.00166741 0.0
-0.0426651 -0.0063037 0.0
-0.0597913 -0.0126033 0.0
-0.0802218 -0.020704 0.0
-0.103654 -0.0306005 0.0
-0.129241 -0.0420748 0.0
-0.155357 -0.054625 0.0
-0.179336 -0.0673931 0.0
-0.197191 -0.0791425 0.0
-0.20335 -0.0882471 0.0
-0.190486 -0.0928662 0.0
-0.149574 -0.0911184 0.0
-0.0704189 -0.0818318 0.0
0.0569501 -0.0651171 0.0
0.239658 -0.0437273 0.0
0.484617 -0.019988 0.0
0.800136 -0.00329384 0.0
0.000842395 2.60649e-05 0.0
0.00226173 0.000278828 0.0
0.00342824 0.000775405 0.0
0.00433747 0.00142748 0.0
0.00496317 0.00220939 0.0
0.00525034 0.00305521 0.0
0.00511025 0.00390324 0.0
0.00441498 0.00466346 0.0
0.00299263 0.00522429 0.0
0.000622489 0.00543854 0.0
-0.00296971 0.00512121 0.0
-0.00811429 0.00404304 0.0
-0.0151998 0.00193375 0.0
-0.0246703 -0.00152295 0.0
-0.0368555 -0.00665013 0.0
-0.0520658 -0.0137502 0.0
-0.0704653 -0.0230714 0.0
-0.0919347 -0.034721 0.0
-0.115893 -0.0485819 0.0
-0.141071 -0.0642067 0.0
-0.165227 -0.0807049 0.0
-0.18483 -0.096671 0.0
-0.194714 -0.110115 0.0
-0.187771 -0.118604 0.0
-0.154761 -0.119379 0.0
-0.0844998 -0.110232 0.0
0.0351334 -0.0901236 0.0
0.213642 -0.0620472 0.0
0.46027 -0.0291631 0.0
0.786728 -0.00496328 0.0
0.000694852 2.75104e-05 0.0
0.00186807 0.000295843 0.0
0.00283506 0.000823713 0.0
0.00359195 0.00151843 0.0
0.00411719 0.00235398 0.0
0.00436604 0.00326208 0.0
0.00426632 0.00417922 0.0
0.00371366 0.00501214 0.0
0.00256707 0.00564489 0.0
0.000644023 0.00592281 0.0
-0.00228517 0.00564944 0.0
-0.0065023 0.00457541 0.0
-0.0123466 0.00240033 0.0
-0.0202199 -0.00124375 0.0
-0.030455 -0.00675492 0.0
-0.0433826 -0.0145338 0.0
-0.0592567 -0.0249597 0.0
-0.0781358 -0.038295 0.0
-0.0997267 -0.05459 0.0
-0.123174 -0.0735412 0.0
-0.146774 -0.0943307 0.0
-0.16763 -0.115485 0.0
-0.18122 -0.134711 0.0
-0.180966 -0.148983 0.0
-0.157718 -0.154462 0.0
-0.0995629 -0.147593 0.0
0.00806309 -0.1251 0.0