# vtk DataFile Version 3.0
Malha 2D com triângulos e temperatura
ASCII
DATASET UNSTRUCTURED_GRID

POINTS 383 double
0 0 0
5 0 0
5 1 0
0 1 0
0.85 0.5 0
0.826604 0.564279 0
0.767365 0.598481 0
0.7 0.586603 0
0.656031 0.534202 0
0.656031 0.465798 0
0.7 0.413397 0
0.767365 0.401519 0
0.826604 0.435721 0
0.147059 0 0
0.294118 0 0
0.441176 0 0
0.588235 0 0
0.735294 0 0
0.882353 0 0
1.02941 0 0
1.17647 0 0
1.32353 0 0
1.47059 0 0
1.61765 0 0
1.76471 0 0
1.91176 0 0
2.05882 0 0
2.20588 0 0
2.35294 0 0
2.5 0 0
2.64706 0 0
2.79412 0 0
2.94118 0 0
3.08824 0 0
3.23529 0 0
3.38235 0 0
3.52941 0 0
3.67647 0 0
3.82353 0 0
3.97059 0 0
4.11765 0 0
4.26471 0 0
4.41176 0 0
4.55882 0 0
4.70588 0 0
4.85294 0 0
5 0.142857 0
5 0.285714 0
5 0.428571 0
5 0.571429 0
5 0.714286 0
5 0.857143 0
4.85294 1 0
4.70588 1 0
4.55882 1 0
4.41176 1 0
4.26471 1 0
4.11765 1 0
3.97059 1 0
3.82353 1 0
3.67647 1 0
3.52941 1 0
3.38235 1 0
3.23529 1 0
3.08824 1 0
2.94118 1 0
2.79412 1 0
2.64706 1 0
2.5 1 0
2.35294 1 0
2.20588 1 0
2.05882 1 0
1.91176 1 0
1.76471 1 0
1.61765 1 0
1.47059 1 0
1.32353 1 0
1.17647 1 0
1.02941 1 0
0.882353 1 0
0.735294 1 0
0.588235 1 0
0.441176 1 0
0.294118 1 0
0.147059 1 0
0 0.857143 0
0 0.714286 0
0 0.571429 0
0 0.428571 0
0 0.285714 0
0 0.142857 0
4.86724 0.488693 0
4.34205 0.115229 0
3.89912 0.11691 0
3.45915 0.119105 0
1.53901 0.872272 0
2.13235 0.875399 0
2.86311 0.124737 0
1.24506 0.12405 0
2.42647 0.127357 0
3.16131 0.87877 0
1.81947 0.120456 0
2.72059 0.877591 0
4.18596 0.867264 0
3.72276 0.896909 0
0.117072 0.629104 0
0.116481 0.352759 0
1.53598 0.12163 0
3.16503 0.117843 0
1.83851 0.872361 0
4.48468 0.86869 0
2.42647 0.87652 0
1.2528 0.875858 0
3.47409 0.861674 0
2.1122 0.123851 0
4.63525 0.122109 0
0.523405 0.884209 0
0.5216 0.127859 0
0.992644 0.881082 0
0.961769 0.132403 0
4.7707 0.860772 0
0.221739 0.879666 0
0.222591 0.128501 0
4.87203 0.222224 0
1.10304 0.139022 0
1.1829 0.244462 0
1.31292 0.24066 0
1.23832 0.35156 0
1.37297 0.353534 0
1.29711 0.463697 0
1.42782 0.472083 0
1.16302 0.459334 0
0.895727 0.553685 0
0.893539 0.44452 0
0.873362 0.378059 0
0.87606 0.620057 0
0.950635 0.6102 0
0.950061 0.389669 0
1.23978 0.551313 0
0.972118 0.537098 0
1.50595 0.358738 0
1.56415 0.479661 0
1.63883 0.363319 0
1.70322 0.486703 0
1.49001 0.616111 0
1.77882 0.369009 0
1.84566 0.491847 0
1.92236 0.37381 0
1.99014 0.497761 0
2.06754 0.378331 0
2.13579 0.502228 0
2.21352 0.38336 0
2.28201 0.507737 0
2.35998 0.387865 0
2.42861 0.512139 0
2.50666 0.393047 0
2.57536 0.517559 0
2.64683 0.401105 0
2.72114 0.522532 0
2.7977 0.379468 0
2.86853 0.52354 0
2.95263 0.397062 0
3.01691 0.529354 0
3.09527 0.411504 0
3.16337 0.536508 0
3.24141 0.418874 0
3.31017 0.540841 0
3.3882 0.424598 0
3.45707 0.546293 0
3.53511 0.430234 0
3.60367 0.560322 0
3.682 0.437286 0
3.75056 0.56761 0
3.82892 0.443451 0
3.89749 0.573627 0
3.97587 0.449256 0
4.04293 0.584874 0
4.12256 0.455888 0
4.18742 0.595154 0
4.26899 0.462533 0
4.33824 0.590661 0
4.41632 0.46679 0
4.48485 0.598163 0
4.56301 0.472125 0
2.93923 0.6592 0
4.63114 0.603511 0
3.96745 0.724077 0
1.77226 0.618151 0
4.05399 0.33071 0
4.49472 0.342691 0
4.64072 0.35003 0
2.05806 0.631667 0
3.61339 0.307891 0
0.921109 0.312333 0
0.835761 0.303357 0
0.723172 0.345968 0
0.651103 0.355367 0
0.678442 0.279883 0
0.592899 0.296042 0
0.572483 0.38072 0
0.50484 0.313023 0
0.475319 0.400324 0
0.409047 0.329905 0
0.381954 0.427785 0
0.449055 0.490372 0
0.352855 0.527331 0
0.438671 0.597302 0
0.322375 0.632811 0
1.04056 0.595986 0
1.01023 0.685662 0
1.01624 0.312739 0
0.594722 0.498701 0
0.594715 0.572 0
2.35223 0.643899 0
0.399414 0.712113 0
2.64676 0.650265 0
2.5849 0.268418 0
3.3195 0.296572 0
0.501709 0.68508 0
0.310945 0.357384 0
1.11657 0.677428 0
3.02562 0.285266 0
3.23222 0.669224 0
1.07399 0.774702 0
3.50816 0.692216 0
0.339619 0.244754 0
2.31031 0.258242 0
0.624057 0.209459 0
0.721983 0.196091 0
0.23708 0.548718 0
1.04091 0.415555 0
2.01425 0.251895 0
1.7284 0.245263 0
1.38645 0.128128 0
4.4075 0.727648 0
0.377905 0.856778 0
0.221218 0.286339 0
0.660045 0.884072 0
0.725391 0.652774 0
0.777518 0.8759 0
0.88341 0.749266 0
0.702709 0.798056 0
0.588709 0.769174 0
0.653826 0.623151 0
0.794446 0.665852 0
1.12326 0.34132 0
0.115581 0.494292 0
0.277472 0.754336 0
1.39505 0.876628 0
1.32377 0.758787 0
0.819439 0.119903 0
0.376683 0.122433 0
1.46092 0.756423 0
1.58253 0.731957 0
0.88466 0.220336 0
1.68662 0.844645 0
1.35062 0.575246 0
4.71083 0.479136 0
4.7862 0.354232 0
4.77665 0.606224 0
4.70162 0.733881 0
4.8385 0.730096 0
4.62923 0.866796 0
4.5557 0.734348 0
4.33362 0.866658 0
4.25945 0.731649 0
1.19104 0.765352 0
4.4909 0.119224 0
4.34367 0.343241 0
4.19617 0.335341 0
4.12134 0.223318 0
3.90716 0.322562 0
3.82125 0.699888 0
3.67004 0.684307 0
3.62013 0.804496 0
3.36176 0.747315 0
3.3079 0.879093 0
4.04278 0.87086 0
3.87017 0.851514 0
2.86765 0.879477 0
2.79347 0.749782 0
3.01463 0.880812 0
3.08716 0.752402 0
3.01416 0.140041 0
3.75492 0.115846 0
3.60888 0.113401 0
1.98534 0.875811 0
1.91238 0.741741 0
3.31287 0.116358 0
2.57353 0.879062 0
2.49967 0.744965 0
2.70693 0.152485 0
2.79412 0.254709 0
2.27941 0.877625 0
2.20588 0.745287 0
3.76034 0.313552 0
3.46645 0.30223 0
3.17256 0.290916 0
0.135435 0.770345 0
1.63154 0.602815 0
2.56754 0.127447 0
1.03373 0.212988 0
4.11433 0.72898 0
0.668435 0.108885 0
0.217235 0.416511 0
2.44568 0.265697 0
4.77984 0.11509 0
2.25874 0.128837 0
1.45544 0.23947 0
1.78006 0.752242 0
2.16276 0.254086 0
0.110869 0.210581 0
0.440991 0.233482 0
1.05983 0.507353 0
1.9157 0.596233 0
0.521269 0.5359 0
1.11939 0.882832 0
1.96166 0.125785 0
0.533695 0.225839 0
1.87083 0.247703 0
1.6802 0.119244 0
2.0588 0.773981 0
4.71431 0.234003 0
0.924482 0.68735 0
0.969559 0.774283 0
4.05042 0.112724 0
0.758603 0.278888 0
0.536111 0.450897 0
0.478228 0.781471 0
2.2068 0.606164 0
4.56833 0.236015 0
2.35273 0.777659 0
1.59019 0.243849 0
4.4158 0.229257 0
1.24898 0.65541 0
2.50053 0.613765 0
4.27142 0.225625 0
0.678189 0.71084 0
0.588581 0.661062 0
2.6468 0.780333 0
0.601301 0.441964 0
4.90509 0.355887 0
4.89531 0.623968 0
1.14479 0.574471 0
2.90789 0.263547 0
4.1946 0.112816 0
0.786525 0.748536 0
0.217887 0.667063 0
2.79383 0.621064 0
0.806157 0.206881 0
3.98123 0.225392 0
0.108574 0.892876 0
0.962519 0.459875 0
2.94043 0.784335 0
3.83216 0.219721 0
4.88792 0.839547 0
3.08778 0.629338 0
0.780392 0.342716 0
4.89499 0.103834 0
3.68548 0.2153 0
1.3863 0.676032 0
0.528989 0.610269 0
3.53824 0.212775 0
3.2326 0.786799 0
0.0959177 0.0957045 0
2.69905 0.293156 0
3.39087 0.210519 0
0.650367 0.576871 0
0.821068 0.622062 0
0.647159 0.413706 0
0.856997 0.68463 0
0.963501 0.23816 0
0.30156 0.458527 0
3.2438 0.207608 0
3.60377 0.917705 0
3.37856 0.632938 0
0.882002 0.838178 0
1.69056 0.684314 0
0.816927 0.379632 0
0.914781 0.499036 0
3.10196 0.213439 0
1.09651 0.260584 0
3.74142 0.782121 0

CELLS 675 2700
3 159 344 161
3 223 316 118
3 219 304 236
3 235 247 214
3 337 338 243
3 52 355 2
3 186 278 272
3 2 355 51
3 238 346 337
3 244 346 238
3 113 275 224
3 242 338 337
3 144 253 252
3 228 303 250
3 214 328 235
3 292 344 159
3 277 278 186
3 236 304 106
3 122 251 225
3 224 274 113
3 216 305 300
3 300 305 99
3 226 310 307
3 307 310 114
3 118 316 78
3 218 338 242
3 231 319 317
3 317 319 101
3 187 314 287
3 216 300 291
3 287 309 187
3 278 382 272
3 291 365 216
3 121 247 235
3 178 302 176
3 105 246 229
3 144 299 253
3 126 308 128
3 220 343 334
3 298 347 247
3 250 303 17
3 107 233 22
3 257 258 91
3 230 245 131
3 139 352 313
3 121 298 247
3 225 236 122
3 294 321 191
3 99 305 226
3 191 329 294
3 226 307 99
3 19 124 119
3 334 343 138
3 265 302 178
3 287 314 191
3 118 324 223
3 117 303 227
3 191 321 287
3 313 352 230
3 186 302 277
3 237 241 239
3 242 328 218
3 104 382 278
3 180 265 178
3 131 313 230
3 234 265 180
3 89 311 106
3 131 245 127
3 40 345 325
3 106 311 236
3 116 242 237
3 320 332 107
3 56 264 55
3 87 246 105
3 290 331 213
3 14 251 122
3 337 346 241
3 213 335 290
3 124 301 119
3 114 310 231
3 231 317 114
3 234 263 110
3 237 239 80
3 233 308 126
3 116 237 81
3 121 235 83
3 110 264 234
3 22 233 21
3 240 376 346
3 315 361 206
3 91 259 257
3 16 303 117
3 258 322 123
3 98 125 124
3 294 329 213
3 176 302 186
3 204 315 206
3 213 331 294
3 325 345 270
3 127 245 125
3 260 261 120
3 80 239 79
3 239 376 79
3 128 308 140
3 82 116 81
3 16 117 15
3 280 339 215
3 79 118 78
3 19 119 18
3 232 320 101
3 215 348 280
3 235 328 116
3 107 308 233
3 74 255 73
3 82 235 116
3 98 124 20
3 232 332 320
3 120 262 260
3 55 264 110
3 237 242 241
3 54 262 53
3 103 264 56
3 185 263 182
3 119 254 250
3 241 346 239
3 117 312 251
3 253 377 255
3 101 319 232
3 50 355 261
3 258 341 91
3 255 377 309
3 129 131 127
3 268 336 333
3 161 344 221
3 264 265 234
3 116 328 242
3 73 255 109
3 227 318 117
3 81 237 80
3 105 347 298
3 290 335 215
3 220 334 266
3 87 105 86
3 89 106 88
3 119 250 18
3 215 339 290
3 21 98 20
3 346 376 239
3 20 124 19
3 282 353 184
3 53 262 120
3 77 112 76
3 182 263 234
3 184 356 282
3 110 262 54
3 229 347 105
3 51 355 50
3 79 376 118
3 75 248 95
3 112 249 248
3 21 233 98
3 206 218 214
3 106 246 88
3 123 341 258
3 260 263 185
3 113 276 275
3 333 336 92
3 266 316 223
3 98 126 125
3 112 248 76
3 112 266 249
3 129 138 131
3 117 251 15
3 125 381 124
3 95 255 74
3 112 316 266
3 252 360 144
3 63 276 62
3 138 343 131
3 18 250 17
3 131 343 313
3 103 302 265
3 83 235 82
3 23 107 22
3 277 302 103
3 14 122 13
3 84 121 83
3 110 263 262
3 292 365 291
3 126 127 125
3 105 298 86
3 248 252 95
3 88 246 87
3 124 381 301
3 100 276 63
3 62 276 113
3 280 348 184
3 184 353 280
3 104 374 274
3 274 382 104
3 103 265 264
3 262 263 260
3 246 304 229
3 123 322 306
3 76 248 75
3 257 259 185
3 183 257 185
3 190 258 257
3 190 257 183
3 53 120 52
3 183 185 182
3 181 183 182
3 259 261 260
3 189 190 183
3 44 115 43
3 120 355 52
3 42 267 92
3 109 287 286
3 115 267 43
3 15 251 14
3 55 110 54
3 181 182 180
3 179 181 180
3 181 189 183
3 179 180 178
3 96 294 293
3 177 179 178
3 182 234 180
3 129 256 138
3 177 269 179
3 43 267 42
3 177 178 176
3 179 269 268
3 188 270 269
3 111 290 289
3 179 268 181
3 188 269 177
3 97 292 291
3 102 280 279
3 31 291 30
3 97 291 31
3 281 282 100
3 66 279 65
3 102 279 66
3 175 176 174
3 175 177 176
3 64 281 100
3 279 281 65
3 176 186 174
3 172 273 170
3 175 271 188
3 65 281 64
3 170 273 224
3 57 277 103
3 58 277 57
3 272 273 172
3 104 278 59
3 58 278 277
3 173 271 175
3 38 284 37
3 93 284 38
3 36 285 94
3 284 285 37
3 59 278 58
3 175 188 177
3 37 285 36
3 57 103 56
3 34 108 33
3 71 286 96
3 64 100 63
3 70 293 69
3 32 283 97
3 34 288 108
3 111 289 68
3 73 109 72
3 32 97 31
3 33 283 32
3 36 94 35
3 71 96 70
3 25 101 24
3 35 288 34
3 94 288 35
3 72 286 71
3 27 114 26
3 108 283 33
3 67 289 102
3 69 293 111
3 109 286 72
3 67 102 66
3 68 289 67
3 60 104 59
3 39 93 38
3 75 95 74
3 69 111 68
3 62 113 61
3 29 99 28
3 96 293 70
3 42 92 41
3 171 295 173
3 173 295 271
3 273 274 224
3 173 175 174
3 174 272 172
3 167 296 169
3 173 174 172
3 192 295 171
3 217 296 167
3 171 173 172
3 169 192 171
3 171 172 170
3 169 171 170
3 170 224 168
3 186 272 174
3 169 170 168
3 169 296 192
3 163 297 165
3 165 217 167
3 167 169 168
3 221 297 163
3 167 168 166
3 166 222 164
3 165 167 166
3 165 297 217
3 165 166 164
3 161 221 163
3 163 165 164
3 162 184 160
3 163 164 162
3 161 163 162
3 161 162 160
3 159 161 160
3 259 260 185
3 158 215 156
3 159 160 158
3 157 159 158
3 157 158 156
3 155 216 157
3 181 268 189
3 155 157 156
3 154 213 152
3 155 156 154
3 151 226 153
3 153 155 154
3 153 154 152
3 151 153 152
3 150 191 148
3 151 152 150
3 149 151 150
3 147 231 149
3 106 304 246
3 47 123 46
3 201 204 203
3 49 91 48
3 149 150 148
3 147 149 148
3 146 187 143
3 249 252 248
3 147 148 146
3 252 253 95
3 251 312 225
3 291 300 30
3 29 300 99
3 142 232 145
3 86 298 85
3 145 147 146
3 139 313 208
3 23 320 107
3 145 146 143
3 253 255 95
3 196 199 198
3 78 316 77
3 221 344 283
3 196 369 199
3 155 305 216
3 141 144 130
3 201 327 204
3 30 300 29
3 226 305 153
3 282 356 222
3 142 145 143
3 45 306 44
3 128 129 127
3 187 299 143
3 130 256 129
3 144 256 130
3 90 311 89
3 142 143 141
3 27 307 114
3 99 307 28
3 140 142 141
3 141 299 144
3 143 299 141
3 140 141 130
3 250 349 228
3 98 233 126
3 126 128 127
3 256 334 138
3 275 375 224
3 222 375 275
3 151 310 226
3 222 363 282
3 128 140 130
3 128 130 129
3 204 206 205
3 231 310 149
3 25 317 101
3 114 317 26
3 242 337 241
3 153 305 155
3 191 314 148
3 17 303 16
3 275 363 222
3 261 342 50
3 101 320 24
3 287 321 286
3 146 314 187
3 96 321 294
3 236 311 122
3 204 205 203
3 40 325 39
3 85 351 3
3 147 319 231
3 3 351 84
3 44 306 115
3 213 329 152
3 255 309 109
3 150 329 191
3 119 371 254
3 199 201 200
3 28 307 27
3 232 319 145
3 117 318 312
3 294 331 293
3 111 331 290
3 207 229 205
3 206 214 207
3 109 309 287
3 215 335 156
3 210 230 137
3 269 336 268
3 154 335 213
3 77 316 112
3 140 332 142
3 245 381 125
3 199 369 340
3 12 133 4
3 290 339 289
3 102 339 280
3 256 360 334
3 159 365 292
3 283 344 97
3 204 327 315
3 184 348 160
3 158 348 215
3 274 374 113
3 322 330 115
3 188 350 270
3 212 367 243
3 149 310 151
3 134 194 193
3 206 207 205
3 280 353 279
3 281 353 282
3 47 341 123
3 91 341 48
3 201 203 202
3 8 211 9
3 222 356 164
3 162 356 184
3 273 382 274
3 206 361 218
3 4 132 5
3 115 330 267
3 224 375 168
3 166 375 222
3 113 374 61
3 60 374 104
3 157 365 159
3 148 314 146
3 214 247 207
3 308 332 140
3 1 358 45
3 199 200 198
3 46 358 1
3 220 266 223
3 219 225 202
3 276 363 275
3 26 317 25
3 6 238 7
3 203 219 202
3 306 322 115
3 330 333 267
3 254 349 250
3 267 333 92
3 282 363 100
3 218 328 214
3 219 236 225
3 286 321 96
3 24 320 23
3 134 378 194
3 145 319 147
3 190 322 258
3 301 381 210
3 10 195 11
3 324 376 240
3 50 342 49
3 201 202 200
3 210 245 230
3 39 325 93
3 220 223 209
3 41 345 40
3 315 327 211
3 301 371 119
3 10 196 195
3 12 134 133
3 283 380 221
3 202 312 200
3 208 209 136
3 190 330 322
3 196 198 197
3 8 212 211
3 243 338 212
3 132 135 5
3 210 371 301
3 152 329 150
3 270 350 325
3 227 228 197
3 193 210 137
3 208 220 209
3 194 254 193
3 132 139 136
3 189 330 190
3 199 327 201
3 266 334 249
3 139 208 136
3 293 331 111
3 261 355 120
3 189 333 330
3 142 332 232
3 13 364 0
3 91 342 259
3 107 332 308
3 6 244 238
3 134 193 137
3 225 312 202
3 238 243 7
3 268 333 189
3 122 364 13
3 92 345 41
3 134 137 133
3 350 354 93
3 0 364 90
3 49 342 91
3 229 372 205
3 198 227 197
3 212 315 211
3 207 347 229
3 156 335 154
3 230 352 137
3 93 354 284
3 334 360 249
3 136 323 135
3 196 197 195
3 270 336 269
3 354 359 284
3 219 372 304
3 227 303 228
3 223 324 209
3 144 360 256
3 132 136 135
3 284 359 285
3 259 342 261
3 289 339 102
3 304 372 229
3 48 341 47
3 203 372 219
3 45 358 306
3 359 362 285
3 200 318 198
3 84 351 121
3 97 344 292
3 285 362 94
3 228 326 197
3 118 376 324
3 160 348 158
3 194 349 254
3 362 366 94
3 210 381 245
3 298 351 85
3 271 350 188
3 209 323 136
3 212 361 315
3 94 366 288
3 271 354 350
3 326 349 194
3 366 373 288
3 279 353 281
3 312 318 200
3 323 324 240
3 288 373 108
3 295 354 271
3 132 379 139
3 197 326 195
3 373 380 108
3 295 359 354
3 198 318 227
3 164 356 162
3 211 340 9
3 108 380 283
3 192 359 295
3 194 378 357
3 311 364 122
3 249 360 252
3 306 358 123
3 192 362 359
3 325 350 93
3 338 361 212
3 123 358 46
3 100 363 276
3 296 362 192
3 121 351 298
3 243 367 7
3 247 347 207
3 296 366 362
3 216 365 157
3 217 366 296
3 217 373 366
3 297 373 217
3 61 374 60
3 168 375 166
3 297 380 373
3 221 380 297
3 272 382 273
3 209 324 323
3 193 371 210
3 327 340 211
3 313 343 208
3 187 377 299
3 208 343 220
3 10 369 196
3 238 337 243
3 8 367 212
3 244 370 346
3 336 345 92
3 299 377 253
3 9 369 10
3 5 368 6
3 7 367 8
3 11 378 12
3 346 370 240
3 137 352 133
3 195 357 11
3 199 340 327
3 326 357 195
3 205 372 203
3 309 377 187
3 135 368 5
3 270 345 336
3 90 364 311
3 12 378 134
3 6 368 244
3 139 379 352
3 323 370 135
3 240 370 323
3 254 371 193
3 135 370 368
3 228 349 326
3 133 379 4
3 368 370 244
3 194 357 326
3 4 379 132
3 352 379 133
3 340 369 9
3 218 361 338
3 357 378 11

CELL_TYPES 675
5
5
5
5
5
5
5
5
5
5
5
5
5
5
5
5
5
5
5
5
5
5
5
5
5
5
5
5
5
5
5
5
5
5
5
5
5
5
5
5
5
5
5
5
5
5
5
5
5
5
5
5
5
5
5
5
5
5
5
5
5
5
5
5
5
5
5
5
5
5
5
5
5
5
5
5
5
5
5
5
5
5
5
5
5
5
5
5
5
5
5
5
5
5
5
5
5
5
5
5
5
5
5
5
5
5
5
5
5
5
5
5
5
5
5
5
5
5
5
5
5
5
5
5
5
5
5
5
5
5
5
5
5
5
5
5
5
5
5
5
5
5
5
5
5
5
5
5
5
5
5
5
5
5
5
5
5
5
5
5
5
5
5
5
5
5
5
5
5
5
5
5
5
5
5
5
5
5
5
5
5
5
5
5
5
5
5
5
5
5
5
5
5
5
5
5
5
5
5
5
5
5
5
5
5
5
5
5
5
5
5
5
5
5
5
5
5
5
5
5
5
5
5
5
5
5
5
5
5
5
5
5
5
5
5
5
5
5
5
5
5
5
5
5
5
5
5
5
5
5
5
5
5
5
5
5
5
5
5
5
5
5
5
5
5
5
5
5
5
5
5
5
5
5
5
5
5
5
5
5
5
5
5
5
5
5
5
5
5
5
5
5
5
5
5
5
5
5
5
5
5
5
5
5
5
5
5
5
5
5
5
5
5
5
5
5
5
5
5
5
5
5
5
5
5
5
5
5
5
5
5
5
5
5
5
5
5
5
5
5
5
5
5
5
5
5
5
5
5
5
5
5
5
5
5
5
5
5
5
5
5
5
5
5
5
5
5
5
5
5
5
5
5
5
5
5
5
5
5
5
5
5
5
5
5
5
5
5
5
5
5
5
5
5
5
5
5
5
5
5
5
5
5
5
5
5
5
5
5
5
5
5
5
5
5
5
5
5
5
5
5
5
5
5
5
5
5
5
5
5
5
5
5
5
5
5
5
5
5
5
5
5
5
5
5
5
5
5
5
5
5
5
5
5
5
5
5
5
5
5
5
5
5
5
5
5
5
5
5
5
5
5
5
5
5
5
5
5
5
5
5
5
5
5
5
5
5
5
5
5
5
5
5
5
5
5
5
5
5
5
5
5
5
5
5
5
5
5
5
5
5
5
5
5
5
5
5
5
5
5
5
5
5
5
5
5
5
5
5
5
5
5
5
5
5
5
5
5
5
5
5
5
5
5
5
5
5
5
5
5
5
5
5
5
5
5
5
5
5
5
5
5
5
5
5
5
5
5
5
5
5
5
5
5
5
5
5
5
5
5
5
5
5
5
5
5
5
5
5
5
5
5
5
5
5
5
5
5
5
5
5
5
5
5
5
5
5
5
5
5
5
5
5
5
5
5
5
5
5
5
5
5
5
5
5
5
5
5
5
5
5
5
5
5
5
5
5
5
5
5
5
5
5
5
5
5
5
5
5
5
5
5
5
5
5
5
5
5
5
5
5
5
5
5
5
5
5
5
5
5
5
5
5
5
5

CELL_DATA 675
VECTORS velocity double
1.83464 0.0601386 0.0
2.28227 -0.571217 0.0
2.82815 -0.162554 0.0
2.89072 0.223366 0.0
6.4789 -4.24542 0.0
0.708983 -0.114506 0.0
1.70402 0.0171654 0.0
0.656019 -0.18759 0.0
4.37718 -5.45312 0.0
3.47154 -7.30418 0.0
1.71367 -0.0205145 0.0
5.1242 -2.15936 0.0
1.96189 -0.136502 0.0
3.15757 0.89538 0.0
3.16236 0.157709 0.0
1.84608 0.109066 0.0
1.50321 -0.00978322 0.0
2.51777 -0.158411 0.0
2.53747 -0.300819 0.0
1.70026 -0.0307722 0.0
1.67688 0.172724 0.0
1.5699 0.16986 0.0
1.59484 0.120569 0.0
1.49489 0.112442 0.0
1.78942 -0.234236 0.0
4.75674 -1.08499 0.0
1.65468 0.124978 0.0
1.55906 0.123786 0.0
1.8268 -0.0689051 0.0
1.62433 0.144068 0.0
1.86014 -0.133131 0.0
1.73513 -0.00952472 0.0
1.7709 0.156392 0.0
2.35856 0.261054 0.0
1.77598 -0.0146959 0.0
2.3193 0.194553 0.0
1.94568 -0.114635 0.0
1.8827 0.204786 0.0
1.8349 -0.525266 0.0
2.50337 0.360396 0.0
2.3885 0.320902 0.0
1.22651 0.105418 0.0
1.78507 -0.019349 0.0
1.54114 0.45499 0.0
-0.934267 -0.0917199 0.0
2.35655 0.293664 0.0
2.63514 -0.321638 0.0
1.70454 -0.0722154 0.0
1.62319 0.170673 0.0
1.74568 -0.0640075 0.0
1.47462 0.129 0.0
1.8988 0.363681 0.0
1.87533 -0.386925 0.0
1.74646 -0.0155234 0.0
1.7601 0.014251 0.0
2.49385 -0.94373 0.0
3.29009 0.36853 0.0
1.71068 -0.00422296 0.0
-0.105496 0.464537 0.0
1.62106 -0.0173233 0.0
3.31412 -0.925066 0.0
4.00182 -0.469415 0.0
1.53404 0.0054712 0.0
1.76094 -0.0102467 0.0
1.10422 0.231231 0.0
1.73483 -0.00870016 0.0
1.82463 -0.125339 0.0
1.84149 0.323731 0.0
1.0639 -0.0115546 0.0
2.28702 -0.221016 0.0
3.22652 -0.380195 0.0
1.62368 0.143709 0.0
0.736929 -0.0109696 0.0
1.76953 0.127827 0.0
1.7208 -0.0441755 0.0
1.83493 -0.19739 0.0
4.15638 -3.1413 0.0
1.77134 -0.0416606 0.0
2.30586 0.719397 0.0
1.61361 0.120749 0.0
1.51471 0.118925 0.0
1.62336 -0.0236187 0.0
2.38685 -0.402898 0.0
1.80195 0.202843 0.0
2.22078 -0.116941 0.0
1.7819 0.208497 0.0
1.51573 -0.0178789 0.0
0.829202 0.0708197 0.0
3.00546 -2.47261 0.0
5.55843 -0.35613 0.0
1.79657 -0.00624961 0.0
2.37387 0.127471 0.0
1.67281 0.0730347 0.0
1.98797 0.43006 0.0
1.74835 0.0269276 0.0
1.74492 -0.0140247 0.0
5.12514 -0.0361441 0.0
1.71119 0.0305683 0.0
1.45985 -0.0118654 0.0
2.02803 0.441774 0.0
1.65645 -0.0326297 0.0
1.63098 -0.310207 0.0
2.56984 -0.657388 0.0
1.91451 0.161671 0.0
1.27139 -0.00212599 0.0
1.49023 -0.0178766 0.0
1.74742 -0.0535177 0.0
1.38999 -0.133255 0.0
1.39154 0.183037 0.0
1.60116 0.138492 0.0
1.80043 -0.0577641 0.0
2.834 0.0447407 0.0
1.63857 0.153274 0.0
0.944237 -0.0298583 0.0
2.04807 0.0621876 0.0
1.58954 0.289492 0.0
1.73849 0.154411 0.0
1.55398 -0.0193137 0.0
1.10844 -0.0133219 0.0
3.72039 -0.974665 0.0
0.750197 -0.00979501 0.0
1.11901 -0.0185334 0.0
1.77588 -0.0300883 0.0
2.73763 1.10337 0.0
3.69949 -1.66979 0.0
2.99384 -0.0885935 0.0
1.89928 -0.106073 0.0
1.69839 0.138626 0.0
1.25694 -0.0365014 0.0
1.69048 0.00400018 0.0
1.90659 -0.0681137 0.0
1.86701 0.124093 0.0
1.70114 -0.0251646 0.0
1.86325 0.0514997 0.0
1.62179 -0.0148194 0.0
3.41859 -0.177669 0.0
1.26854 -0.0729786 0.0
3.75535 0.338938 0.0
1.41378 -0.123809 0.0
2.36249 0.292762 0.0
1.7836 0.0391154 0.0
2.0143 -0.511144 0.0
1.33484 0.100713 0.0
1.34185 -0.0484057 0.0
2.17031 0.456813 0.0
1.73752 0.0357063 0.0
0.920064 0.106226 0.0
3.31768 -1.64796 0.0
1.22928 0.156728 0.0
1.75332 -0.0533969 0.0
1.14029 -0.021216 0.0
0.914913 -0.0448489 0.0
1.73911 -0.0221759 0.0
1.80694 -0.0585834 0.0
1.12065 -0.00984202 0.0
2.54072 0.301128 0.0
0.801598 -0.0117698 0.0
2.43182 -0.508045 0.0
1.28143 -0.0447458 0.0
1.8049 -0.152087 0.0
1.32692 0.165298 0.0
3.9942 -0.0328028 0.0
1.78986 -0.0217652 0.0
1.64082 0.0807222 0.0
1.75578 -0.0323005 0.0
1.53384 -0.0253096 0.0
1.57698 -0.022369 0.0
2.21403 -0.497911 0.0
1.95091 0.349316 0.0
1.34727 -0.0788499 0.0
1.99901 -0.258832 0.0
1.82792 -0.0671423 0.0
2.16044 -0.144224 0.0
2.28516 0.578968 0.0
1.29392 -0.0227968 0.0
1.9939 -0.297108 0.0
2.00847 -0.15717 0.0
0.695679 0.00268884 0.0
1.72158 -0.188777 0.0
1.46918 0.14357 0.0
1.3743 -0.148266 0.0
1.64066 -0.0174968 0.0
1.33331 0.0817675 0.0
0.750199 0.0504041 0.0
1.54051 -0.0174308 0.0
1.13745 -0.111817 0.0
1.02064 0.107224 0.0
1.53051 -0.0177648 0.0
1.7925 0.0915917 0.0
1.96914 0.352588 0.0
1.81524 0.183198 0.0
1.72517 -0.0869676 0.0
1.3319 0.0371895 0.0
2.40222 0.771253 0.0
1.13578 0.000881988 0.0
1.13031 -0.00684604 0.0
1.79753 0.0194829 0.0
1.74691 0.0233621 0.0
1.4822 -0.0352009 0.0
1.65706 -0.030757 0.0
1.5288 -0.0153473 0.0
1.64282 -0.0247137 0.0
2.54445 0.0433727 0.0
1.52867 0.0442602 0.0
0.831416 -0.0287344 0.0
1.82032 -0.030251 0.0
1.8215 -0.0238825 0.0
1.8027 -0.00313201 0.0
1.81844 -0.0157329 0.0
0.778434 -0.0366801 0.0
1.80983 -0.0260843 0.0
1.80806 -0.0192985 0.0
1.77278 -0.0467203 0.0
1.80249 -0.00948511 0.0
0.659544 0.00188869 0.0
1.10276 -0.0906994 0.0
1.05602 -0.0156774 0.0
1.58853 -0.0718097 0.0
1.05574 -0.00666279 0.0
1.23123 -0.0852461 0.0
0.729902 -0.00675277 0.0
1.79778 -0.0176211 0.0
1.79701 -0.0181692 0.0
1.80272 -0.0166855 0.0
1.78738 -0.00913264 0.0
1.52912 -0.0140913 0.0
1.79908 -0.00834326 0.0
1.76561 -0.0161184 0.0
1.93704 -0.150162 0.0
1.7992 -0.0227818 0.0
0.651789 -0.00965931 0.0
1.80302 -0.0032653 0.0
1.78277 -0.0268963 0.0
1.76326 -0.0286973 0.0
1.54292 -0.00247587 0.0
1.79205 -0.0265083 0.0
1.80217 -0.0218987 0.0
1.58718 0.0874416 0.0
1.5522 -0.00633363 0.0
0.899601 0.0447602 0.0
1.22946 0.0763749 0.0
1.56794 0.00374734 0.0
0.693361 -0.00252405 0.0
1.11343 -0.00155986 0.0
1.81709 0.0115111 0.0
1.81268 0.00359793 0.0
1.12798 0.00566042 0.0
1.1152 -0.00123938 0.0
1.78381 0.00430738 0.0
1.86689 -0.0034149 0.0
1.80848 -0.00795691 0.0
0.69158 0.00242474 0.0
1.83615 -0.0225411 0.0
1.11819 -0.0176533 0.0
0.717717 -0.0163431 0.0
1.84849 0.00434782 0.0
1.14303 -0.0002509 0.0
1.13317 -0.0374398 0.0
1.82719 0.0034836 0.0
0.662321 -0.0108757 0.0
1.08467 -0.0149539 0.0
1.10156 -0.00913414 0.0
1.09232 -0.0162871 0.0
0.818736 -0.032896 0.0
1.81408 -0.00613133 0.0
0.653314 -0.0092698 0.0
0.743916 -0.0123343 0.0
0.71469 0.0176825 0.0
1.1106 -0.0237012 0.0
0.709801 -0.000569178 0.0
0.690874 -0.00382639 0.0
1.2003 0.0266967 0.0
1.14031 0.0203949 0.0
1.10356 -0.000546684 0.0
0.771852 -0.0286689 0.0
0.750563 0.026127 0.0
0.839124 0.0253061 0.0
0.688225 -0.0056213 0.0
0.703277 -0.00580038 0.0
0.716073 0.0558292 0.0
0.688191 0.000386283 0.0
1.11948 -0.00320067 0.0
0.718341 -0.0179677 0.0
0.699086 0.0548261 0.0
1.20876 0.0654489 0.0
1.10664 -0.00125415 0.0
1.09907 -0.00286692 0.0
1.15857 -0.0507222 0.0
0.698096 0.000791802 0.0
0.688047 -0.00209753 0.0
0.63112 -0.0101652 0.0
0.656509 -0.0085625 0.0
0.821666 -0.0164274 0.0
0.696632 0.000614128 0.0
0.77726 -0.000236068 0.0
0.711601 0.0275193 0.0
1.10167 -0.00756095 0.0
0.636369 -0.0103538 0.0
1.84405 -0.000689514 0.0
1.82218 -0.0077403 0.0
1.7927 -0.0487258 0.0
1.83493 0.0130521 0.0
1.84106 0.0123514 0.0
1.86644 -0.00889475 0.0
1.85066 0.0171659 0.0
1.83316 -0.0088675 0.0
1.85219 -0.0147821 0.0
1.86244 0.00552512 0.0
1.8534 -0.00727221 0.0
1.8697 -0.00470365 0.0
1.86894 -0.00683674 0.0
1.87613 -0.0140968 0.0
1.78877 0.0173117 0.0
1.87776 -0.0119843 0.0
1.84269 -0.0113946 0.0
1.86606 -0.0231397 0.0
1.86812 -0.0212028 0.0
1.88397 -0.0139941 0.0
1.85378 -0.0140744 0.0
1.89128 -0.0219243 0.0
1.89753 -0.0233023 0.0
1.88916 -0.0232728 0.0
1.84715 -0.018299 0.0
1.89016 -0.0287129 0.0
1.87511 -0.00945938 0.0
1.88393 -0.0290994 0.0
1.87518 -0.0130386 0.0
1.8835 -0.0239266 0.0
1.88458 -0.0165278 0.0
1.86726 -0.00643347 0.0
1.85471 0.00213577 0.0
1.79512 -0.0413027 0.0
1.88185 0.0120344 0.0
1.87587 0.0170218 0.0
1.87462 0.05906 0.0
1.87604 0.0369903 0.0
1.83068 0.0755212 0.0
1.77974 -0.0216702 0.0
1.85696 0.057768 0.0
1.82567 0.0135985 0.0
1.82893 0.0420967 0.0
1.75551 0.105193 0.0
1.80698 0.0520973 0.0
1.80472 0.0363482 0.0
1.78614 0.0529634 0.0
1.81996 0.0134096 0.0
1.7875 0.0326733 0.0
1.78593 0.0502827 0.0
1.78289 0.102154 0.0
2.29592 -0.0519339 0.0
0.876978 0.124704 0.0
4.41582 0.173964 0.0
0.945837 -0.0178234 0.0
1.80588 0.0370441 0.0
1.81188 0.0554903 0.0
1.93965 0.0181817 0.0
1.8828 -0.139239 0.0
1.83755 0.0478058 0.0
1.84205 -0.104258 0.0
3.0432 -0.209522 0.0
1.2181 0.0440112 0.0
1.13511 0.0513534 0.0
1.88312 0.120437 0.0
1.32767 0.142445 0.0
1.86315 0.0658087 0.0
-0.0409866 -0.739319 0.0
1.17687 0.0894355 0.0
1.90992 0.0515576 0.0
1.72137 -0.076832 0.0
6.82629 3.22523 0.0
1.0435 -0.0643675 0.0
1.79561 0.095303 0.0
9.2341 5.05232 0.0
1.77719 0.0915684 0.0
1.95307 -0.0633302 0.0
5.54091 0.390121 0.0
0.756834 0.0250344 0.0
1.74752 0.119899 0.0
1.81884 0.0206147 0.0
1.92473 0.0593793 0.0
0.621465 0.0288709 0.0
1.91236 0.139894 0.0
1.96784 -0.0413571 0.0
1.94284 -0.0685327 0.0
1.95647 -0.145417 0.0
1.33087 -0.0770611 0.0
1.95126 0.0223806 0.0
1.08945 0.0811062 0.0
1.09064 0.0629628 0.0
1.94737 0.0622414 0.0
1.95105 -0.0701886 0.0
1.96512 -0.0311373 0.0
1.94585 0.0338894 0.0
3.41347 1.67237 0.0
1.74228 0.242214 0.0
1.92932 0.229911 0.0
1.94213 -0.233111 0.0
1.79931 -0.0193784 0.0
1.82543 -0.0334422 0.0
1.71667 0.111993 0.0
1.77696 0.0339222 0.0
1.93381 0.0919976 0.0
1.93407 0.0594427 0.0
4.10089 0.0440407 0.0
1.72916 0.110041 0.0
1.12534 0.0937554 0.0
1.10584 0.0909549 0.0
4.3028 -1.78052 0.0
1.78055 0.087172 0.0
1.81468 -0.0174188 0.0
1.36474 0.080015 0.0
1.78772 -0.0322174 0.0
1.35007 -0.0625906 0.0
1.14911 0.0910355 0.0
1.63994 -0.0797902 0.0
1.87557 0.0428053 0.0
1.61327 -0.00320167 0.0
2.405 -0.256149 0.0
3.90263 0.0883434 0.0
0.633079 -0.00891852 0.0
1.07666 0.0919514 0.0
1.77373 0.11728 0.0
0.801469 0.102609 0.0
1.0389 0.0257409 0.0
1.80027 -0.0218445 0.0
1.63768 -0.0801689 0.0
1.7893 0.0217524 0.0
2.66081 1.38901 0.0
5.39007 0.837819 0.0
0.707734 0.0476576 0.0
1.82024 0.130106 0.0
3.59807 0.154497 0.0
1.61957 -0.0317214 0.0
1.62709 0.0190587 0.0
3.12513 0.177354 0.0
3.49432 0.159372 0.0
1.73066 -0.0645455 0.0
1.8466 -0.012131 0.0
0.82405 1.58021 0.0
1.74165 -0.0263817 0.0
1.815 0.0323933 0.0
1.50421 -0.140543 0.0
1.91865 0.129886 0.0
2.15196 0.652199 0.0
10.404 4.30852 0.0
-17.0426 7.14 0.0
1.63874 -0.0250724 0.0
1.64372 0.0129416 0.0
1.96276 -0.255522 0.0
1.86481 0.0576713 0.0
1.61179 0.0753851 0.0
6.30634 0.19693 0.0
1.85533 -0.0361087 0.0
1.85883 0.0158137 0.0
1.46656 -0.0176788 0.0
1.58021 0.0109551 0.0
1.72857 -0.023085 0.0
11.5815 -6.39935 0.0
1.75277 0.0978517 0.0
0.299771 4.8948 0.0
3.50958 0.146008 0.0
1.65111 -0.0296414 0.0
1.65519 0.015763 0.0
1.25917 0.0505202 0.0
1.29773 0.0623007 0.0
4.03663 0.100037 0.0
22.9993 0.0861854 0.0
1.87545 -0.0404692 0.0
1.85896 0.00267299 0.0
1.80611 -0.00777453 0.0
4.88998 -0.40794 0.0
-16.9824 -7.20271 0.0
1.45565 -0.00720163 0.0
1.89147 -0.0449624 0.0
1.88348 0.00354015 0.0
1.10531 -0.0336165 0.0
1.04987 -0.00418384 0.0
1.84316 0.0620075 0.0
1.82203 0.0259956 0.0
3.0345 0.280414 0.0
1.88505 0.15842 0.0
0.468301 0.0475389 0.0
5.5208 1.44907 0.0
0.604853 0.117493 0.0
2.11373 -0.701575 0.0
3.29365 -0.140191 0.0
1.67902 0.00371703 0.0
0.723266 0.0613415 0.0
6.10641 -20.4921 0.0
3.53236 -0.0300985 0.0
1.43524 0.0274481 0.0
1.57318 -0.0157219 0.0
3.14372 1.66389 0.0
1.44024 -0.0172135 0.0
1.68001 -0.0155972 0.0
3.70117 -0.0414023 0.0
2.92208 -0.214568 0.0
1.45866 -0.0365278 0.0
0.722573 0.0491665 0.0
-0.834407 7.61166 0.0
1.83043 0.112555 0.0
1.75143 0.0235091 0.0
2.2776 1.09614 0.0
5.98486 20.3528 0.0
2.70877 -1.89257 0.0
0.964704 -0.0925742 0.0
4.35163 0.272965 0.0
1.54206 0.979107 0.0
1.06964 -0.0140509 0.0
2.00803 -1.08896 0.0
0.630925 -0.00889452 0.0
8.78145 0.217403 0.0
2.56126 1.08004 0.0
8.09962 11.6383 0.0
-8.02447 7.71404 0.0
1.81698 0.055724 0.0
3.92112 0.0803943 0.0
0.682702 -1.76994 0.0
1.71707 0.0129861 0.0
5.86904 3.71231 0.0
15.3429 -2.61358 0.0
8.55146 -4.04787 0.0
-8.20297 -7.7787 0.0
2.28219 1.35792 0.0
1.77674 0.00984083 0.0
1.60124 -0.017949 0.0
4.27515 1.98247 0.0
0.919219 2.33312 0.0
1.4885 -1.15663 0.0
2.02848 3.17455 0.0
-3.06916 -2.55383 0.0
1.75765 -0.00709156 0.0
6.43998 1.08022 0.0
2.03141 -0.351074 0.0
-0.53698 -1.6018 0.0
1.4531 -0.00507469 0.0
1.51179 -0.0383359 0.0
1.69627 -0.0178504 0.0
1.86822 0.14417 0.0
0.751644 -0.0839711 0.0
1.71494 -0.0158115 0.0
1.76187 0.157863 0.0
2.53969 -13.6456 0.0
-0.575517 3.82635 0.0
3.43391 -0.123585 0.0
8.3274 -12.3796 0.0
1.73604 -0.0260088 0.0
1.5893 -0.210558 0.0
1.05722 -0.0163354 0.0
-3.50405 4.41689 0.0
1.60113 -0.0302455 0.0
1.10936 -0.0719991 0.0
1.34011 -0.0811722 0.0
3.13545 0.133463 0.0
4.84929 2.06593 0.0
10.0168 -1.02492 0.0
2.86611 0.257377 0.0
1.81693 0.023795 0.0
-0.493169 1.45626 0.0
1.47004 -0.0255986 0.0
2.00702 -0.298037 0.0
-0.661381 -4.04525 0.0
6.10713 6.61752 0.0
1.70314 -0.0235501 0.0
1.6143 -0.0266045 0.0
3.03023 -0.0514227 0.0
3.69322 0.992786 0.0
2.18222 -1.38031 0.0
1.95697 -0.207279 0.0
-3.6039 -4.52771 0.0
1.47018 -0.0205292 0.0
1.71628 -0.0570628 0.0