# vtk DataFile Version 3.0
Malha 2D com triângulos e temperatura
ASCII
DATASET UNSTRUCTURED_GRID

POINTS 2500 double
0 0 0
1 0 0
1 1 0
0 1 0
0.0204082 0 0
0.0408163 0 0
0.0612245 0 0
0.0816327 0 0
0.102041 0 0
0.122449 0 0
0.142857 0 0
0.163265 0 0
0.183673 0 0
0.204082 0 0
0.22449 0 0
0.244898 0 0
0.265306 0 0
0.285714 0 0
0.306122 0 0
0.326531 0 0
0.346939 0 0
0.367347 0 0
0.387755 0 0
0.408163 0 0
0.428571 0 0
0.44898 0 0
0.469388 0 0
0.489796 0 0
0.510204 0 0
0.530612 0 0
0.55102 0 0
0.571429 0 0
0.591837 0 0
0.612245 0 0
0.632653 0 0
0.653061 0 0
0.673469 0 0
0.693878 0 0
0.714286 0 0
0.734694 0 0
0.755102 0 0
0.77551 0 0
0.795918 0 0
0.816327 0 0
0.836735 0 0
0.857143 0 0
0.877551 0 0
0.897959 0 0
0.918367 0 0
0.938776 0 0
0.959184 0 0
0.979592 0 0
1 0.0204082 0
1 0.0408163 0
1 0.0612245 0
1 0.0816327 0
1 0.102041 0
1 0.122449 0
1 0.142857 0
1 0.163265 0
1 0.183673 0
1 0.204082 0
1 0.22449 0
1 0.244898 0
1 0.265306 0
1 0.285714 0
1 0.306122 0
1 0.326531 0
1 0.346939 0
1 0.367347 0
1 0.387755 0
1 0.408163 0
1 0.428571 0
1 0.44898 0
1 0.469388 0
1 0.489796 0
1 0.510204 0
1 0.530612 0
1 0.55102 0
1 0.571429 0
1 0.591837 0
1 0.612245 0
1 0.632653 0
1 0.653061 0
1 0.673469 0
1 0.693878 0
1 0.714286 0
1 0.734694 0
1 0.755102 0
1 0.77551 0
1 0.795918 0
1 0.816327 0
1 0.836735 0
1 0.857143 0
1 0.877551 0
1 0.897959 0
1 0.918367 0
1 0.938776 0
1 0.959184 0
1 0.979592 0
0.979592 1 0
0.959184 1 0
0.938776 1 0
0.918367 1 0
0.897959 1 0
0.877551 1 0
0.857143 1 0
0.836735 1 0
0.816327 1 0
0.795918 1 0
0.77551 1 0
0.755102 1 0
0.734694 1 0
0.714286 1 0
0.693878 1 0
0.673469 1 0
0.653061 1 0
0.632653 1 0
0.612245 1 0
0.591837 1 0
0.571429 1 0
0.55102 1 0
0.530612 1 0
0.510204 1 0
0.489796 1 0
0.469388 1 0
0.44898 1 0
0.428571 1 0
0.408163 1 0
0.387755 1 0
0.367347 1 0
0.346939 1 0
0.326531 1 0
0.306122 1 0
0.285714 1 0
0.265306 1 0
0.244898 1 0
0.22449 1 0
0.204082 1 0
0.183673 1 0
0.163265 1 0
0.142857 1 0
0.122449 1 0
0.102041 1 0
0.0816327 1 0
0.0612245 1 0
0.0408163 1 0
0.0204082 1 0
0 0.979592 0
0 0.959184 0
0 0.938776 0
0 0.918367 0
0 0.897959 0
0 0.877551 0
0 0.857143 0
0 0.836735 0
0 0.816327 0
0 0.795918 0
0 0.77551 0
0 0.755102 0
0 0.734694 0
0 0.714286 0
0 0.693878 0
0 0.673469 0
0 0.653061 0
0 0.632653 0
0 0.612245 0
0 0.591837 0
0 0.571429 0
0 0.55102 0
0 0.530612 0
0 0.510204 0
0 0.489796 0
0 0.469388 0
0 0.44898 0
0 0.428571 0
0 0.408163 0
0 0.387755 0
0 0.367347 0
0 0.346939 0
0 0.326531 0
0 0.306122 0
0 0.285714 0
0 0.265306 0
0 0.244898 0
0 0.22449 0
0 0.204082 0
0 0.183673 0
0 0.163265 0
0 0.142857 0
0 0.122449 0
0 0.102041 0
0 0.0816327 0
0 0.0612245 0
0 0.0408163 0
0 0.0204082 0
0.0204082 0.979592 0
0.0204082 0.959184 0
0.0204082 0.938776 0
0.0204082 0.918367 0
0.0204082 0.897959 0
0.0204082 0.877551 0
0.0204082 0.857143 0
0.0204082 0.836735 0
0.0204082 0.816327 0
0.0204082 0.795918 0
0.0204082 0.77551 0
0.0204082 0.755102 0
0.0204082 0.734694 0
0.0204082 0.714286 0
0.0204082 0.693878 0
0.0204082 0.673469 0
0.0204082 0.653061 0
0.0204082 0.632653 0
0.0204082 0.612245 0
0.0204082 0.591837 0
0.0204082 0.571429 0
0.0204082 0.55102 0
0.0204082 0.530612 0
0.0204082 0.510204 0
0.0204082 0.489796 0
0.0204082 0.469388 0
0.0204082 0.44898 0
0.0204082 0.428571 0
0.0204082 0.408163 0
0.0204082 0.387755 0
0.0204082 0.367347 0
0.0204082 0.346939 0
0.0204082 0.326531 0
0.0204082 0.306122 0
0.0204082 0.285714 0
0.0204082 0.265306 0
0.0204082 0.244898 0
0.0204082 0.22449 0
0.0204082 0.204082 0
0.0204082 0.183673 0
0.0204082 0.163265 0
0.0204082 0.142857 0
0.0204082 0.122449 0
0.0204082 0.102041 0
0.0204082 0.0816327 0
0.0204082 0.0612245 0
0.0204082 0.0408163 0
0.0204082 0.0204082 0
0.0408163 0.979592 0
0.0408163 0.959184 0
0.0408163 0.938776 0
0.0408163 0.918367 0
0.0408163 0.897959 0
0.0408163 0.877551 0
0.0408163 0.857143 0
0.0408163 0.836735 0
0.0408163 0.816327 0
0.0408163 0.795918 0
0.0408163 0.77551 0
0.0408163 0.755102 0
0.0408163 0.734694 0
0.0408163 0.714286 0
0.0408163 0.693878 0
0.0408163 0.673469 0
0.0408163 0.653061 0
0.0408163 0.632653 0
0.0408163 0.612245 0
0.0408163 0.591837 0
0.0408163 0.571429 0
0.0408163 0.55102 0
0.0408163 0.530612 0
0.0408163 0.510204 0
0.0408163 0.489796 0
0.0408163 0.469388 0
0.0408163 0.44898 0
0.0408163 0.428571 0
0.0408163 0.408163 0
0.0408163 0.387755 0
0.0408163 0.367347 0
0.0408163 0.346939 0
0.0408163 0.326531 0
0.0408163 0.306122 0
0.0408163 0.285714 0
0.0408163 0.265306 0
0.0408163 0.244898 0
0.0408163 0.22449 0
0.0408163 0.204082 0
0.0408163 0.183673 0
0.0408163 0.163265 0
0.0408163 0.142857 0
0.0408163 0.122449 0
0.0408163 0.102041 0
0.0408163 0.0816327 0
0.0408163 0.0612245 0
0.0408163 0.0408163 0
0.0408163 0.0204082 0
0.0612245 0.979592 0
0.0612245 0.959184 0
0.0612245 0.938776 0
0.0612245 0.918367 0
0.0612245 0.897959 0
0.0612245 0.877551 0
0.0612245 0.857143 0
0.0612245 0.836735 0
0.0612245 0.816327 0
0.0612245 0.795918 0
0.0612245 0.77551 0
0.0612245 0.755102 0
0.0612245 0.734694 0
0.0612245 0.714286 0
0.0612245 0.693878 0
0.0612245 0.673469 0
0.0612245 0.653061 0
0.0612245 0.632653 0
0.0612245 0.612245 0
0.0612245 0.591837 0
0.0612245 0.571429 0
0.0612245 0.55102 0
0.0612245 0.530612 0
0.0612245 0.510204 0
0.0612245 0.489796 0
0.0612245 0.469388 0
0.0612245 0.44898 0
0.0612245 0.428571 0
0.0612245 0.408163 0
0.0612245 0.387755 0
0.0612245 0.367347 0
0.0612245 0.346939 0
0.0612245 0.326531 0
0.0612245 0.306122 0
0.0612245 0.285714 0
0.0612245 0.265306 0
0.0612245 0.244898 0
0.0612245 0.22449 0
0.0612245 0.204082 0
0.0612245 0.183673 0
0.0612245 0.163265 0
0.0612245 0.142857 0
0.0612245 0.122449 0
0.0612245 0.102041 0
0.0612245 0.0816327 0
0.0612245 0.0612245 0
0.0612245 0.0408163 0
0.0612245 0.0204082 0
0.0816327 0.979592 0
0.0816327 0.959184 0
0.0816327 0.938776 0
0.0816327 0.918367 0
0.0816327 0.897959 0
0.0816327 0.877551 0
0.0816327 0.857143 0
0.0816327 0.836735 0
0.0816327 0.816327 0
0.0816327 0.795918 0
0.0816327 0.77551 0
0.0816327 0.755102 0
0.0816327 0.734694 0
0.0816327 0.714286 0
0.0816327 0.693878 0
0.0816327 0.673469 0
0.0816327 0.653061 0
0.0816327 0.632653 0
0.0816327 0.612245 0
0.0816327 0.591837 0
0.0816327 0.571429 0
0.0816327 0.55102 0
0.0816327 0.530612 0
0.0816327 0.510204 0
0.0816327 0.489796 0
0.0816327 0.469388 0
0.0816327 0.44898 0
0.0816327 0.428571 0
0.0816327 0.408163 0
0.0816327 0.387755 0
0.0816327 0.367347 0
0.0816327 0.346939 0
0.0816327 0.326531 0
0.0816327 0.306122 0
0.0816327 0.285714 0
0.0816327 0.265306 0
0.0816327 0.244898 0
0.0816327 0.22449 0
0.0816327 0.204082 0
0.0816327 0.183673 0
0.0816327 0.163265 0
0.0816327 0.142857 0
0.0816327 0.122449 0
0.0816327 0.102041 0
0.0816327 0.0816327 0
0.0816327 0.0612245 0
0.0816327 0.0408163 0
0.0816327 0.0204082 0
0.102041 0.979592 0
0.102041 0.959184 0
0.102041 0.938776 0
0.102041 0.918367 0
0.102041 0.897959 0
0.102041 0.877551 0
0.102041 0.857143 0
0.102041 0.836735 0
0.102041 0.816327 0
0.102041 0.795918 0
0.102041 0.77551 0
0.102041 0.755102 0
0.102041 0.734694 0
0.102041 0.714286 0
0.102041 0.693878 0
0.102041 0.673469 0
0.102041 0.653061 0
0.102041 0.632653 0
0.102041 0.612245 0
0.102041 0.591837 0
0.102041 0.571429 0
0.102041 0.55102 0
0.102041 0.530612 0
0.102041 0.510204 0
0.102041 0.489796 0
0.102041 0.469388 0
0.102041 0.44898 0
0.102041 0.428571 0
0.102041 0.408163 0
0.102041 0.387755 0
0.102041 0.367347 0
0.102041 0.346939 0
0.102041 0.326531 0
0.102041 0.306122 0
0.102041 0.285714 0
0.102041 0.265306 0
0.102041 0.244898 0
0.102041 0.22449 0
0.102041 0.204082 0
0.102041 0.183673 0
0.102041 0.163265 0
0.102041 0.142857 0
0.102041 0.122449 0
0.102041 0.102041 0
0.102041 0.0816327 0
0.102041 0.0612245 0
0.102041 0.0408163 0
0.102041 0.0204082 0
0.122449 0.979592 0
0.122449 0.959184 0
0.122449 0.938776 0
0.122449 0.918367 0
0.122449 0.897959 0
0.122449 0.877551 0
0.122449 0.857143 0
0.122449 0.836735 0
0.122449 0.816327 0
0.122449 0.795918 0
0.122449 0.77551 0
0.122449 0.755102 0
0.122449 0.734694 0
0.122449 0.714286 0
0.122449 0.693878 0
0.122449 0.673469 0
0.122449 0.653061 0
0.122449 0.632653 0
0.122449 0.612245 0
0.122449 0.591837 0
0.122449 0.571429 0
0.122449 0.55102 0
0.122449 0.530612 0
0.122449 0.510204 0
0.122449 0.489796 0
0.122449 0.469388 0
0.122449 0.44898 0
0.122449 0.428571 0
0.122449 0.408163 0
0.122449 0.387755 0
0.122449 0.367347 0
0.122449 0.346939 0
0.122449 0.326531 0
0.122449 0.306122 0
0.122449 0.285714 0
0.122449 0.265306 0
0.122449 0.244898 0
0.122449 0.22449 0
0.122449 0.204082 0
0.122449 0.183673 0
0.122449 0.163265 0
0.122449 0.142857 0
0.122449 0.122449 0
0.122449 0.102041 0
0.122449 0.0816327 0
0.122449 0.0612245 0
0.122449 0.0408163 0
0.122449 0.0204082 0
0.142857 0.979592 0
0.142857 0.959184 0
0.142857 0.938776 0
0.142857 0.918367 0
0.142857 0.897959 0
0.142857 0.877551 0
0.142857 0.857143 0
0.142857 0.836735 0
0.142857 0.816327 0
0.142857 0.795918 0
0.142857 0.77551 0
0.142857 0.755102 0
0.142857 0.734694 0
0.142857 0.714286 0
0.142857 0.693878 0
0.142857 0.673469 0
0.142857 0.653061 0
0.142857 0.632653 0
0.142857 0.612245 0
0.142857 0.591837 0
0.142857 0.571429 0
0.142857 0.55102 0
0.142857 0.530612 0
0.142857 0.510204 0
0.142857 0.489796 0
0.142857 0.469388 0
0.142857 0.44898 0
0.142857 0.428571 0
0.142857 0.408163 0
0.142857 0.387755 0
0.142857 0.367347 0
0.142857 0.346939 0
0.142857 0.326531 0
0.142857 0.306122 0
0.142857 0.285714 0
0.142857 0.265306 0
0.142857 0.244898 0
0.142857 0.22449 0
0.142857 0.204082 0
0.142857 0.183673 0
0.142857 0.163265 0
0.142857 0.142857 0
0.142857 0.122449 0
0.142857 0.102041 0
0.142857 0.0816327 0
0.142857 0.0612245 0
0.142857 0.0408163 0
0.142857 0.0204082 0
0.163265 0.979592 0
0.163265 0.959184 0
0.163265 0.938776 0
0.163265 0.918367 0
0.163265 0.897959 0
0.163265 0.877551 0
0.163265 0.857143 0
0.163265 0.836735 0
0.163265 0.816327 0
0.163265 0.795918 0
0.163265 0.77551 0
0.163265 0.755102 0
0.163265 0.734694 0
0.163265 0.714286 0
0.163265 0.693878 0
0.163265 0.673469 0
0.163265 0.653061 0
0.163265 0.632653 0
0.163265 0.612245 0
0.163265 0.591837 0
0.163265 0.571429 0
0.163265 0.55102 0
[...]
CELL_DATA 2401
VECTORS velocity double
0.270744 0.14757 0.0
0.0042382 0.258766 0.0
-0.0292679 0.208264 0.0
-0.0242249 0.154717 0.0
-0.0160172 0.117291 0.0
-0.0102073 0.0915594 0.0
-0.00664863 0.0735017 0.0
-0.00451761 0.06044 0.0
-0.00321088 0.0506965 0.0
-0.0023757 0.0432293 0.0
-0.001818 0.0373736 0.0
-0.00143091 0.0326891 0.0
-0.00115353 0.0288731 0.0
-0.000949463 0.0257126 0.0
-0.000795904 0.0230542 0.0
-0.000677959 0.0207864 0.0
-0.000585614 0.0188269 0.0
-0.000511988 0.0171147 0.0
-0.000452275 0.0156035 0.0
-0.000403071 0.0142582 0.0
-0.00036194 0.0130515 0.0
-0.00032711 0.0119623 0.0
-0.000297279 0.0109734 0.0
-0.00027148 0.0100713 0.0
-0.00024898 0.00924478 0.0
-0.000229218 0.00848452 0.0
-0.000211764 0.00778274 0.0
-0.000196277 0.00713284 0.0
-0.000182489 0.00652912 0.0
-0.000170188 0.00596661 0.0
-0.000159202 0.00544096 0.0
-0.000149392 0.00494829 0.0
-0.000140647 0.00448511 0.0
-0.000132876 0.00404828 0.0
-0.000126003 0.0036349 0.0
-0.00011996 0.00324233 0.0
-0.000114678 0.00286815 0.0
-0.000110075 0.00251019 0.0
-0.000106026 0.00216659 0.0
-0.000102335 0.00183595 0.0
-9.86728e-05 0.0015176 0.0
-9.45128e-05 0.001212 0.0
-8.90435e-05 0.000921351 0.0
-8.11018e-05 0.000650363 0.0
-6.91844e-05 0.000407097 0.0
-5.16634e-05 0.000203393 0.0
-2.74479e-05 5.42222e-05 0.0
1.82506e-06 -2.34957e-05 0.0
2.16929e-05 -2.1651e-05 0.0
0.35148 0.123547 0.0
0.00447971 0.255864 0.0
-0.0616135 0.280937 0.0
-0.0614045 0.260954 0.0
-0.0486613 0.228983 0.0
-0.0365711 0.19682 0.0
-0.0273959 0.168356 0.0
-0.0207889 0.144373 0.0
-0.0160472 0.124551 0.0
-0.0126036 0.10826 0.0
-0.0100654 0.0948471 0.0
-0.00816821 0.0837392 0.0
-0.00673189 0.0744614 0.0
-0.00563086 0.0666345 0.0
-0.00477606 0.0599614 0.0
-0.00410356 0.0542116 0.0
-0.00356715 0.0492068 0.0
-0.00313327 0.0448094 0.0
-0.00277746 0.0409123 0.0
-0.00248177 0.0374323 0.0
-0.002233 0.0343036 0.0
-0.00202132 0.0314738 0.0
-0.00183936 0.028901 0.0
-0.00168156 0.0265508 0.0
-0.00154365 0.0243951 0.0
-0.00142233 0.0224103 0.0
-0.00131502 0.0205766 0.0
-0.00121969 0.0188772 0.0
-0.00113472 0.0172973 0.0
-0.0010588 0.0158244 0.0
-0.000990889 0.0144473 0.0
-0.000930121 0.0131559 0.0
-0.000875793 0.0119415 0.0
-0.000827312 0.0107958 0.0
-0.000784171 0.00971171 0.0
-0.000745904 0.00868247 0.0
-0.00071203 0.00770212 0.0
-0.000681979 0.0067654 0.0
-0.000654968 0.00586794 0.0
-0.000629832 0.00500667 0.0
-0.000604785 0.0041803 0.0
-0.00057713 0.00339027 0.0
-0.000542964 0.0026418 0.0
-0.000497018 0.00194525 0.0
-0.000432926 0.00131721 0.0
-0.000344425 0.000780509 0.0
-0.000228307 0.000361857 0.0
-9.15491e-05 9.19423e-05 0.0
2.32876e-05 -1.48423e-06 0.0
0.504712 0.0799763 0.0
0.100929 0.187885 0.0
-0.037039 0.2545 0.0
-0.0727591 0.271143 0.0
-0.073987 0.260953 0.0
-0.0651381 0.239576 0.0
-0.0545455 0.214983 0.0
-0.0448334 0.190943 0.0
-0.0366581 0.169046 0.0
-0.0300202 0.149782 0.0
-0.0247215 0.133118 0.0
-0.0205245 0.118798 0.0
-0.0172071 0.106499 0.0
-0.0145797 0.0958979 0.0
-0.0124876 0.0867092 0.0
-0.010809 0.0786897 0.0
-0.00944901 0.0716395 0.0
-0.00833548 0.0653962 0.0
-0.00741345 0.0598293 0.0
-0.00664144 0.0548335 0.0
-0.00598804 0.0503242 0.0
-0.00542946 0.0462326 0.0
-0.00494755 0.0425025 0.0
-0.00452838 0.0390875 0.0
-0.00416116 0.035949 0.0
-0.00383748 0.0330546 0.0
-0.0035507 0.0303768 0.0
-0.00329557 0.0278918 0.0
-0.00306786 0.0255792 0.0
-0.00286416 0.023421 0.0
-0.0026817 0.0214014 0.0
-0.0025182 0.0195062 0.0
-0.00237176 0.0177228 0.0
-0.0022408 0.0160396 0.0
-0.0021239 0.0144463 0.0
-0.00201974 0.0129336 0.0
-0.00192697 0.0114928 0.0
-0.00184396 0.0101167 0.0
-0.00176855 0.00879931 0.0
-0.00169766 0.00753637 0.0
-0.00162676 0.0063262 0.0
-0.00154928 0.00517069 0.0
-0.00145612 0.00407658 0.0
-0.00133552 0.00305691 0.0
-0.00117389 0.00213212 0.0
-0.000958576 0.00132968 0.0
-0.000683647 0.000681364 0.0
-0.000361529 0.000228105 0.0
-5.50615e-05 2.79689e-05 0.0
0.615237 0.0507021 0.0
0.201254 0.135394 0.0
0.0144705 0.209615 0.0
-0.0593863 0.24599 0.0
-0.0820278 0.253327 0.0
-0.0833651 0.244818 0.0
-0.0764349 0.228567 0.0
-0.0669256 0.209368 0.0
-0.0573038 0.189878 0.0
-0.0485764 0.171441 0.0
-0.0410705 0.154634 0.0
-0.0347992 0.139607 0.0
-0.0296408 0.126297 0.0
-0.0254279 0.114546 0.0
-0.0219918 0.104163 0.0
-0.0191812 0.0949632 0.0
-0.0168689 0.0867759 0.0
-0.0149519 0.0794544 0.0
-0.0133485 0.0728742 0.0
-0.0119949 0.0669311 0.0
-0.0108418 0.0615382 0.0
-0.00985059 0.0566234 0.0
-0.00899166 0.0521265 0.0
-0.00824179 0.0479967 0.0
-0.00758285 0.0441915 0.0
-0.00700052 0.0406744 0.0
-0.00648345 0.0374141 0.0
-0.00602255 0.0343835 0.0
-0.00561047 0.031559 0.0
-0.00524128 0.0289197 0.0
-0.00491009 0.0264472 0.0
-0.00461288 0.0241247 0.0
-0.00434628 0.0219374 0.0
-0.00410741 0.0198718 0.0
-0.00389371 0.0179155 0.0
-0.00370277 0.0160573 0.0
-0.00353204 0.0142874 0.0
-0.00337855 0.0125969 0.0
-0.00323837 0.010979 0.0
-0.00310603 0.00942853 0.0
-0.00297368 0.00794342 0.0
-0.00283023 0.00652551 0.0
-0.00266065 0.00518193 0.0
-0.00244595 0.00392658 0.0
-0.00216453 0.0027813 0.0
-0.00179618 0.00177564 0.0
-0.00132982 0.000944925 0.0
-0.000777035 0.000340455 0.0
-0.000204076 5.18568e-05 0.0
0.686871 0.0322049 0.0
0.285407 0.0978779 0.0
0.0715385 0.167309 0.0
-0.0322972 0.210798 0.0
-0.0764502 0.229012 0.0
-0.0907203 0.230749 0.0
-0.0905576 0.222737 0.0
-0.0838975 0.20959 0.0
-0.0748316 0.194266 0.0
-0.0654299 0.178531 0.0
-0.0566711 0.163352 0.0
-0.0489446 0.149199 0.0
-0.0423315 0.13625 0.0
-0.0367635 0.124519 0.0
-0.0321113 0.113938 0.0
-0.0282313 0.104403 0.0
-0.0249881 0.0958005 0.0
-0.022264 0.0880214 0.0
-0.0199609 0.0809653 0.0
-0.0179993 0.0745437 0.0
-0.0163155 0.0686798 0.0
-0.0148594 0.0633075 0.0
-0.0135909 0.0583701 0.0
-0.0124787 0.0538189 0.0
-0.0114978 0.049612 0.0
-0.0106282 0.0457129 0.0
-0.00985389 0.0420901 0.0
-0.00916209 0.0387157 0.0
-0.00854231 0.0355652 0.0
-0.00798599 0.0326169 0.0
-0.00748609 0.0298511 0.0
-0.00703675 0.0272503 0.0
-0.00663302 0.0247984 0.0
-0.00627067 0.022481 0.0
-0.00594587 0.0202848 0.0
-0.00565499 0.0181978 0.0
-0.00539418 0.0162091 0.0
-0.00515893 0.0143094 0.0
-0.00494341 0.012491 0.0
-0.00473954 0.0107483 0.0
-0.00453598 0.00907877 0.0
-0.00431691 0.00748392 0.0
-0.00406118 0.00597067 0.0
-0.00374226 0.00455289 0.0
-0.00332992 0.00325282 0.0
-0.00279493 0.00210128 0.0
-0.00211774 0.00113695 0.0
-0.0013021 0.000420761 0.0
-0.00040478 6.83066e-05 0.0
0.735417 0.0206262 0.0
0.353936 0.071172 0.0
0.12597 0.132008 0.0
0.000572028 0.175621 0.0
-0.0625244 0.199545 0.0
-0.0899062 0.208228 0.0
-0.0978003 0.206826 0.0
-0.0955336 0.199259 0.0
-0.0884449 0.188337 0.0
-0.0795373 0.175916 0.0
-0.0704272 0.163148 0.0
-0.0619137 0.150694 0.0
-0.0543271 0.138902 0.0
-0.047743 0.127926 0.0
-0.0421089 0.117807 0.0
-0.0373184 0.108525 0.0
-0.0332497 0.100027 0.0
-0.0297865 0.0922475 0.0
-0.0268257 0.0851192 0.0
-0.0242801 0.0785767 0.0
-0.0220777 0.0725598 0.0
-0.0201601 0.0670144 0.0
-0.0184802 0.0618921 0.0
-0.0169999 0.0571501 0.0
-0.0156889 0.0527508 0.0
-0.0145225 0.0486606 0.0
-0.0134808 0.04485 0.0
-0.0125476 0.0412925 0.0
-0.0117095 0.0379644 0.0
-0.0109556 0.0348444 0.0
-0.0102769 0.0319132 0.0
-0.00966575 0.0291533 0.0
-0.00911573 0.0265486 0.0
-0.00862123 0.0240845 0.0
-0.00817718 0.0217474 0.0
-0.00777871 0.019525 0.0
-0.00742065 0.0174064 0.0
-0.00709696 0.0153818 0.0
-0.00679983 0.0134431 0.0
-0.00651861 0.0115845 0.0
-0.00623842 0.00980306 0.0
-0.00593873 0.00809986 0.0
-0.00559221 0.00648137 0.0
-0.00516451 0.00496116 0.0
-0.00461604 0.00356155 0.0
-0.00390692 0.0023144 0.0
-0.00300591 0.00126152 0.0
-0.00190352 0.00047153 0.0
-0.000639651 7.82921e-05 0.0
0.769449 0.0133963 0.0
0.409181 0.0522014 0.0
0.174922 0.103813 0.0
0.0345582 0.144336 0.0
-0.0440868 0.170381 0.0
-0.0835259 0.183257 0.0
-0.0996481 0.186624 0.0
-0.102482 0.183584 0.0
-0.0982333 0.176593 0.0
-0.0906504 0.167414 0.0
-0.0819091 0.157226 0.0
-0.073197 0.146777 0.0
-0.0651004 0.136513 0.0
-0.0578562 0.126683 0.0
-0.0515091 0.117413 0.0
-0.0460084 0.108748 0.0
-0.0412622 0.100691 0.0
-0.0371683 0.09322 0.0
-0.0336286 0.0862996 0.0
-0.0305558 0.0798896 0.0
-0.0278753 0.0739491 0.0
-0.0255249 0.0684382 0.0
-0.0234532 0.0633195 0.0
-0.0216182 0.0585584 0.0
-0.0199856 0.0541236 0.0
-0.0185274 0.0499862 0.0
-0.0172206 0.0461201 0.0
-0.0160464 0.0425015 0.0
-0.0149892 0.0391089 0.0
-0.014036 0.0359224 0.0
-0.0131761 0.0329239 0.0
-0.0124004 0.0300965 0.0
-0.011701 0.027425 0.0
-0.0110711 0.024895 0.0
-0.0105045 0.0224934 0.0
-0.00999524 0.0202081 0.0
-0.00953678 0.0180281 0.0
-0.00912164 0.0159437 0.0
-0.00874011 0.0139469 0.0
-0.00837903 0.0120316 0.0
-0.00802009 0.0101945 0.0
-0.00763813 0.00843644 0.0
-0.00719956 0.0067634 0.0
-0.006662 0.00518862 0.0
-0.0059758 0.00373443 0.0
-0.005089 0.00243358 0.0
-0.00395622 0.00133037 0.0
-0.00255137 0.000498696 0.0
-0.000894062 8.33985e-05 0.0
0.793807 0.00887385 0.0
0.453433 0.0387477 0.0
0.217508 0.0818308 0.0
0.0668178 0.118213 0.0
-0.0238088 0.143963 0.0
-0.0736961 0.158982 0.0
-0.0975785 0.165494 0.0
-0.105658 0.165844 0.0
-0.104678 0.16207 0.0
-0.0989429 0.155741 0.0
-0.0910869 0.147973 0.0
-0.0826396 0.139524 0.0
-0.0744269 0.130883 0.0
-0.066846 0.122352 0.0
-0.0600456 0.114112 0.0
-0.0540401 0.106259 0.0
-0.0487771 0.0988379 0.0
-0.0441774 0.0918633 0.0
-0.0401553 0.0853289 0.0
-0.0366297 0.0792182 0.0
-0.0335284 0.0735087 0.0
-0.030789 0.0681752 0.0
-0.0283592 0.0631919 0.0
-0.0261952 0.0585335 0.0
-0.0242606 0.0541754 0.0
-0.0225255 0.0500945 0.0
-0.020965 0.0462691 0.0
-0.0195582 0.0426788 0.0
-0.0182881 0.0393048 0.0
-0.0171403 0.0361294 0.0
-0.0161024 0.0331361 0.0
-0.0151643 0.0303095 0.0
-0.0143169 0.0276353 0.0
-0.0135525 0.0250999 0.0
-0.0128638 0.0226911 0.0
-0.0122438 0.020397 0.0
-0.0116848 0.0182072 0.0
-0.011178 0.0161122 0.0
-0.0107118 0.014104 0.0
-0.0102708 0.0121766 0.0
-0.00983335 0.0103266 0.0
-0.00936967 0.00855453 0.0
-0.00883999 0.006866 0.0
-0.00819365 0.00527398 0.0
-0.00737043 0.00380076 0.0
-0.00630526 0.00247966 0.0
-0.00493713 0.00135664 0.0
-0.00322159 0.000508492 0.0
-0.00115708 8.51188e-05 0.0
0.811567 0.0060196 0.0
0.488837 0.0291461 0.0
0.253973 0.0648023 0.0
0.0964237 0.096785 0.0
-0.00335048 0.121054 0.0
-0.0620014 0.136823 0.0
-0.0928603 0.145218 0.0
-0.105983 0.14796 0.0
-0.108394 0.146673 0.0
-0.104785 0.142697 0.0
-0.0981495 0.137041 0.0
-0.0903022 0.130424 0.0
-0.082281 0.123337 0.0
-0.0746321 0.116107 0.0
-0.0676059 0.108944 0.0
-0.0612842 0.101978 0.0
-0.0556587 0.0952844 0.0
-0.050678 0.088905 0.0
-0.046274 0.0828579 0.0
-0.0423763 0.0771464 0.0
-0.0389185 0.0717645 0.0
-0.0358417 0.0667007 0.0
-0.0330949 0.0619401 0.0
-0.0306348 0.0574662 0.0
-0.0284246 0.0532619 0.0
-0.0264337 0.0493096 0.0
-0.0246362 0.0455925 0.0
-0.0230106 0.0420939 0.0
-0.0215386 0.0387979 0.0
-0.0202047 0.0356894 0.0
-0.018996 0.0327539 0.0
-0.0179012 0.0299775 0.0
-0.0169105 0.0273474 0.0
-0.0160153 0.0248511 0.0
-0.0152075 0.0224769 0.0
-0.0144791 0.0202141 0.0
-0.0138216 0.0180526 0.0
-0.0132248 0.0159834 0.0
-0.0126757 0.0139986 0.0
-0.0121564 0.0120925 0.0
-0.0116421 0.0102617 0.0
-0.0110987 0.00850637 0.0
-0.0104802 0.00683209 0.0
-0.00972754 0.0052515 0.0
-0.0087696 0.00378676 0.0
-0.00752766 0.00247132 0.0
-0.00592433 0.0013519 0.0
-0.00389624 0.000506121 0.0
-0.0014211 8.46124e-05 0.0
0.824759 0.00419435 0.0
0.517213 0.0222377 0.0
0.284884 0.0516461 0.0
0.122949 0.0794038 0.0
0.0163784 0.101562 0.0
-0.0495098 0.117245 0.0
-0.0864752 0.126624 0.0
-0.104258 0.130961 0.0
-0.109987 0.131516 0.0
-0.108608 0.129402 0.0
-0.103382 0.125504 0.0
-0.0963573 0.120478 0.0
-0.0887517 0.114795 0.0
-0.0812439 0.108782 0.0
-0.0741783 0.10266 0.0
-0.0677019 0.0965785 0.0
-0.0618511 0.090634 0.0
-0.0566046 0.0848869 0.0
-0.0519144 0.0793733 0.0
-0.0477235 0.0741126 0.0
-0.0439743 0.0691123 0.0
-0.0406136 0.0643728 0.0
-0.0375937 0.0598888 0.0
-0.0348735 0.055652 0.0
-0.0324173 0.0516519 0.0
-0.0301949 0.0478767 0.0
-0.0281807 0.0443139 0.0
-0.0263528 0.0409507 0.0
-0.0246926 0.0377744 0.0
-0.0231843 0.0347722 0.0
-0.0218143 0.0319319 0.0
-0.0205707 0.0292415 0.0
-0.0194434 0.0266892 0.0
-0.018423 0.0242641 0.0
-0.0175007 0.0219555 0.0
-0.0166681 0.0197532 0.0
-0.0159156 0.0176481 0.0
-0.015232 0.0156314 0.0
-0.0146027 0.013696 0.0
-0.0140077 0.0118361 0.0
-0.0134195 0.0100484 0.0
-0.0127992 0.00833324 0.0
-0.012095 0.00669583 0.0
-0.0112393 0.0051486 0.0
-0.0101501 0.00371337 0.0
-0.00873491 0.00242334 0.0
-0.00689972 0.00132506 0.0
-0.00456241 0.000495419 0.0
-0.00168099 8.26816e-05 0.0
0.834746 0.00300925 0.0
0.540054 0.0172267 0.0
0.310957 0.0414951 0.0
0.146354 0.0654222 0.0
0.0346469 0.0853696 0.0
-0.0369681 0.100312 0.0
-0.0791575 0.110033 0.0
-0.101134 0.115346 0.0
-0.109993 0.117202 0.0
-0.110826 0.116508 0.0
-0.107093 0.114023 0.0
-0.101023 0.11033 0.0
-0.0939852 0.105865 0.0
-0.0867718 0.100939 0.0
-0.0798116 0.0957766 0.0
-0.0733117 0.0905324 0.0
-0.0673513 0.0853143 0.0
-0.0619391 0.0801955 0.0
-0.0570487 0.0752247 0.0
-0.0526374 0.0704328 0.0
-0.0486584 0.0658383 0.0
-0.0450653 0.0614508 0.0
-0.0418157 0.0572735 0.0
-0.0388716 0.0533049 0.0
-0.0361999 0.0495404 0.0
-0.0337717 0.0459733 0.0
-0.0315622 0.0425953 0.0
-0.0295501 0.0393972 0.0
-0.027717 0.0363692 0.0
-0.0260471 0.0335011 0.0
-0.0245268 0.0307826 0.0
-0.0231439 0.0282035 0.0
-0.0218878 0.0257537 0.0
-0.020749 0.0234233 0.0
-0.0197183 0.0212027 0.0
-0.0187864 0.0190828 0.0
-0.0179434 0.0170548 0.0
-0.0171768 0.0151109 0.0
-0.016471 0.0132442 0.0
-0.0158039 0.0114493 0.0
-0.0151449 0.00972308 0.0
-0.0144513 0.00806584 0.0
-0.0136649 0.00648269 0.0
-0.0127103 0.00498568 0.0
-0.0114944 0.00359612 0.0
-0.00991101 0.00234651 0.0
-0.00784998 0.00128249 0.0
-0.00521093 0.000478994 0.0
-0.00193334 7.98365e-05 0.0
0.842452 0.00222526 0.0
0.558558 0.0135521 0.0
0.332929 0.0336327 0.0
0.166852 0.0541779 0.0
0.0513219 0.0719516 0.0
-0.0248444 0.0858481 0.0
-0.0714427 0.0954713 0.0
-0.0971239 0.101293 0.0
-0.108859 0.104015 0.0
-0.111812 0.104364 0.0
-0.109577 0.102979 0.0
-0.104527 0.100371 0.0
-0.0981495 0.0969298 0.0
-0.0913359 0.0929481 0.0
-0.0845875 0.0886394 0.0
-0.0781655 0.084159 0.0
-0.0721887 0.0796189 0.0
-0.0666945 0.075099 0.0
-0.0616773 0.0706559 0.0
-0.0571099 0.0663287 0.0
-0.0529562 0.0621438 0.0
-0.0491783 0.0581178 0.0
-0.0457396 0.0542604 0.0
-0.0426065 0.050576 0.0
-0.0397487 0.047065 0.0
-0.0371399 0.0437249 0.0
-0.0347567 0.0405512 0.0
-0.0325788 0.0375378 0.0
-0.0305887 0.0346777 0.0
-0.0287708 0.0319629 0.0
-0.0271117 0.0293851 0.0
-0.0255995 0.0269358 0.0
-0.0242235 0.0246064 0.0
-0.0229739 0.0223881 0.0
-0.0218412 0.0202724 0.0
-0.0208159 0.018251 0.0
-0.0198874 0.0163161 0.0
-0.0190425 0.0144603 0.0
-0.0182642 0.0126772 0.0
-0.0175287 0.0109619 0.0
-0.0168028 0.00931144 0.0
-0.0160395 0.00772607 0.0
-0.0151752 0.00621078 0.0
-0.0141261 0.00477719 0.0
-0.0127889 0.00344589 0.0
-0.0110439 0.00224827 0.0
-0.00876523 0.00122845 0.0
-0.00583518 0.000458511 0.0
-0.00217581 7.63797e-05 0.0
0.848513 0.00169462 0.0
0.573662 0.0108214 0.0
0.351463 0.0275034 0.0
0.184714 0.0451147 0.0
0.0663607 0.0608382 0.0
-0.0134149 0.073563 0.0
-0.0637056 0.0828049 0.0
-0.092617 0.0887971 0.0
-0.106951 0.0920456 0.0
-0.111884 0.0931272 0.0
-0.111102 0.0925725 0.0
-0.107083 0.0908218 0.0
-0.101414 0.0882219 0.0
-0.0950659 0.0850382 0.0
-0.0886028 0.0814708 0.0
-0.0823333 0.0776692 0.0
-0.0764118 0.0737446 0.0
-0.0709024 0.0697795 0.0
-0.0658191 0.0658344 0.0
-0.0611496 0.0619535 0.0
-0.0568692 0.0581683 0.0
-0.0529486 0.0545007 0.0
-0.0493574 0.0509653 0.0
-0.046067 0.0475707 0.0
-0.0430509 0.0443215 0.0
-0.0402853 0.0412188 0.0
-0.0377491 0.0382611 0.0
-0.0354235 0.035445 0.0
-0.0332918 0.0327659 0.0
-0.0313396 0.0302178 0.0
-0.0295536 0.0277944 0.0
-0.0279224 0.0254884 0.0
-0.0264355 0.0232927 0.0
-0.0250829 0.0211996 0.0
-0.0238552 0.0192017 0.0
-0.0227426 0.0172916 0.0
-0.021734 0.0154621 0.0
-0.0208156 0.0137065 0.0
-0.0199692 0.0120189 0.0
-0.0191696 0.0103948 0.0
-0.0183806 0.00883143 0.0
-0.0175518 0.00732912 0.0
-0.0166138 0.00589263 0.0
-0.0154754 0.00453306 0.0
-0.0140229 0.00327004 0.0
-0.0121241 0.00213354 0.0
-0.00963794 0.00116567 0.0
-0.00643023 0.000434984 0.0
-0.00240671 7.24792e-05 0.0
0.853363 0.00132598 0.0
0.586087 0.00876237 0.0
0.367129 0.0226877 0.0
0.20023 0.0377807 0.0
0.0798078 0.0516216 0.0
-0.00282794 0.0631459 0.0
-0.0561983 0.0718337 0.0
-0.087903 0.0777572 0.0
-0.104553 0.0812746 0.0
-0.111305 0.0828386 0.0
-0.111897 0.0828874 0.0
-0.108887 0.0817967 0.0
-0.103939 0.0798705 0.0
-0.0980906 0.0773468 0.0
-0.0919585 0.0744092 0.0
-0.0858929 0.0711981 0.0
-0.080079 0.0678207 0.0
-0.0746051 0.0643585 0.0
-0.0695034 0.0608732 0.0
-0.064776 0.0574115 0.0
-0.0604089 0.0540079 0.0
-0.0563813 0.0506875 0.0
-0.0526695 0.0474684 0.0
-0.0492501 0.0443623 0.0
-0.0461005 0.0413769 0.0
-0.0432002 0.038516 0.0
-0.0405303 0.0357805 0.0
-0.0380739 0.0331694 0.0
-0.0358157 0.03068 0.0
-0.0337422 0.028308 0.0
-0.031841 0.0260486 0.0
-0.0301011 0.023896 0.0
-0.0285122 0.0218442 0.0
-0.0270647 0.0198866 0.0
-0.0257491 0.0180167 0.0
-0.0245555 0.0162278 0.0
-0.0234724 0.0145137 0.0
-0.0224855 0.0128681 0.0
-0.0215757 0.0112857 0.0
-0.0207161 0.00976233 0.0
-0.0198683 0.00829547 0.0
-0.0189782 0.00688548 0.0
-0.0179712 0.00553683 0.0
-0.016749 0.00426 0.0
-0.015188 0.00307348 0.0
-0.0131441 0.00200554 0.0
-0.0104622 0.00109587 0.0
-0.00699221 0.000409017 0.0
-0.00262472 6.82231e-05 0.0
0.857305 0.00106262 0.0
0.596389 0.00718563 0.0
0.380406 0.0188696 0.0
0.213686 0.0318133 0.0
0.0917569 0.043954 0.0
0.00685296 0.0542998 0.0
-0.0490828 0.0623386 0.0
-0.0831906 0.0680299 0.0
-0.101889 0.0716239 0.0
-0.110289 0.0734735 0.0
-0.112157 0.0739388 0.0
-0.110109 0.073339 0.0
-0.10587 0.0719386 0.0
-0.100531 0.0699488 0.0
-0.0947535 0.0675357 0.0
-0.088923 0.064829 0.0
-0.0832521 0.0619295 0.0
-0.0778502 0.0589156 0.0
-0.0727661 0.055848 0.0
-0.0680149 0.0527737 0.0
-0.0635931 0.0497284 0.0
-0.059488 0.0467391 0.0
-0.0556825 0.0438256 0.0
-0.0521582 0.0410021 0.0
-0.0488971 0.038278 0.0
-0.0458815 0.0356592 0.0
-0.0430954 0.0331486 0.0
-0.0405238 0.0307468 0.0
-0.0381531 0.0284525 0.0
-0.0359708 0.0262631 0.0
-0.0339655 0.0241749 0.0
-0.0321267 0.0221833 0.0
-0.0304447 0.0202833 0.0
-0.0289102 0.0184693 0.0
-0.0275138 0.0167356 0.0
-0.0262455 0.0150763 0.0
-0.0250936 0.0134857 0.0
-0.0240434 0.0119583 0.0
-0.0230749 0.0104893 0.0
-0.0221597 0.00907467 0.0
-0.0212573 0.0077123 0.0
-0.0203103 0.00640245 0.0
-0.0192393 0.00514931 0.0
-0.017939 0.0039626 0.0
-0.0162771 0.00285951 0.0
-0.0140979 0.00186636 0.0
-0.011233 0.00102015 0.0
-0.00751793 0.000380965 0.0
-0.00282875 6.36556e-05 0.0
0.860552 0.000868954 0.0
0.604995 0.00595891 0.0
0.391694 0.0158119 0.0
0.225345 0.026925 0.0
0.102323 0.0375459 0.0
0.0156188 0.0467557 0.0
-0.0424541 0.054106 0.0
-0.0786261 0.0594586 0.0
-0.0991259 0.0629889 0.0
-0.109005 0.0649708 0.0
-0.112043 0.0657007 0.0
-0.110895 0.0654495 0.0
-0.107335 0.0644463 0.0
-0.102497 0.0628779 0.0
-0.0970804 0.0608929 0.0
-0.0915003 0.0586096 0.0
-0.0859931 0.0561211 0.0
-0.0806869 0.0535013 0.0
-0.0756455 0.0508082 0.0
-0.0708956 0.0480874 0.0
-0.0664435 0.0453747 0.0
-0.062284 0.0426974 0.0
-0.0584064 0.0400762 0.0
-0.0547975 0.0375262 0.0
-0.0514432 0.0350582 0.0
-0.0483294 0.0326793 0.0
-0.0454425 0.0303936 0.0
-0.0427698 0.028203 0.0
-0.0402992 0.0261072 0.0
-0.0380196 0.0241048 0.0
-0.0359206 0.0221931 0.0
-0.0339925 0.0203684 0.0
-0.0322261 0.0186265 0.0
-0.0306123 0.0169626 0.0
-0.029142 0.0153719 0.0
-0.0278052 0.0138491 0.0
-0.0265902 0.012389 0.0
-0.0254818 0.0109869 0.0
-0.0244592 0.00963813 0.0
-0.0234929 0.00833929 0.0
-0.0225404 0.00708827 0.0
-0.0215411 0.00588535 0.0
-0.0204111 0.00473434 0.0
-0.019039 0.00364411 0.0
-0.017284 0.00263043 0.0
-0.01498 0.00171746 0.0
-0.0119463 0.000939231 0.0
-0.00800466 0.000351054 0.0
-0.00301782 5.87996e-05 0.0
0.863259 0.0007224 0.0
0.612231 0.00498895 0.0
0.401319 0.0133366 0.0
0.235443 0.0228899 0.0
0.111626 0.0321614 0.0
0.0234541 0.0403211 0.0
-0.0363727 0.0469526 0.0
-0.0743129 0.0518954 0.0
-0.096391 0.0552579 0.0
-0.107591 0.0572526 0.0
-0.111689 0.058124 0.0