# vtk DataFile Version 3.0
Malha 2D com triângulos e temperatura
ASCII
DATASET UNSTRUCTURED_GRID

POINTS 1076 double
2 0 0
10 0 0
10 2 0
0 2 0
0 1 0
2 1 0
2.14815 0 0
2.2963 0 0
2.44444 0 0
2.59259 0 0
2.74074 0 0
2.88889 0 0
3.03704 0 0
3.18519 0 0
3.33333 0 0
3.48148 0 0
3.62963 0 0
3.77778 0 0
3.92593 0 0
4.07407 0 0
4.22222 0 0
4.37037 0 0
4.51852 0 0
4.66667 0 0
4.81481 0 0
4.96296 0 0
5.11111 0 0
5.25926 0 0
5.40741 0 0
5.55556 0 0
5.7037 0 0
5.85185 0 0
6 0 0
6.14815 0 0
6.2963 0 0
6.44444 0 0
6.59259 0 0
6.74074 0 0
6.88889 0 0
7.03704 0 0
7.18519 0 0
7.33333 0 0
7.48148 0 0
7.62963 0 0
7.77778 0 0
7.92593 0 0
8.07407 0 0
8.22222 0 0
8.37037 0 0
8.51852 0 0
8.66667 0 0
8.81481 0 0
8.96296 0 0
9.11111 0 0
9.25926 0 0
9.40741 0 0
9.55556 0 0
9.7037 0 0
9.85185 0 0
10 0.142857 0
10 0.285714 0
10 0.428571 0
10 0.571429 0
10 0.714286 0
10 0.857143 0
10 1 0
10 1.14286 0
10 1.28571 0
10 1.42857 0
10 1.57143 0
10 1.71429 0
10 1.85714 0
9.85075 2 0
9.70149 2 0
9.55224 2 0
9.40299 2 0
9.25373 2 0
9.10448 2 0
8.95522 2 0
8.80597 2 0
8.65672 2 0
8.50746 2 0
8.35821 2 0
8.20896 2 0
8.0597 2 0
7.91045 2 0
7.76119 2 0
7.61194 2 0
7.46269 2 0
7.31343 2 0
7.16418 2 0
7.01493 2 0
6.86567 2 0
6.71642 2 0
6.56716 2 0
6.41791 2 0
6.26866 2 0
6.1194 2 0
5.97015 2 0
5.8209 2 0
5.67164 2 0
5.52239 2 0
5.37313 2 0
5.22388 2 0
5.07463 2 0
4.92537 2 0
4.77612 2 0
4.62687 2 0
4.47761 2 0
4.32836 2 0
4.1791 2 0
4.02985 2 0
3.8806 2 0
3.73134 2 0
3.58209 2 0
3.43284 2 0
3.28358 2 0
3.13433 2 0
2.98507 2 0
2.83582 2 0
2.68657 2 0
2.53731 2 0
2.38806 2 0
2.23881 2 0
2.08955 2 0
1.9403 2 0
1.79104 2 0
1.64179 2 0
1.49254 2 0
1.34328 2 0
1.19403 2 0
1.04478 2 0
0.895522 2 0
0.746269 2 0
0.597015 2 0
0.447761 2 0
0.298507 2 0
0.149254 2 0
0 1.85714 0
0 1.71429 0
0 1.57143 0
0 1.42857 0
0 1.28571 0
0 1.14286 0
0.142857 1 0
0.285714 1 0
0.428571 1 0
0.571429 1 0
0.714286 1 0
0.857143 1 0
1 1 0
1.14286 1 0
1.28571 1 0
1.42857 1 0
1.57143 1 0
1.71429 1 0
1.85714 1 0
2 0.857143 0
2 0.714286 0
2 0.571429 0
2 0.428571 0
2 0.285714 0
2 0.142857 0
8.88411 0.127683 0
8.2887 0.146405 0
7.70483 0.115774 0
7.10038 0.122305 0
6.52157 0.116912 0
5.92034 0.117075 0
5.34277 0.122855 0
4.73832 0.11973 0
4.13651 0.115468 0
3.55699 0.126826 0
3.03689 1.86583 0
8.58478 1.87603 0
7.98091 1.87348 0
7.38506 1.85759 0
6.79134 1.87536 0
2.12393 0.928203 0
6.18686 1.87441 0
5.59699 1.87664 0
5 1.87735 0
4.39147 1.87433 0
9.88619 1.06145 0
3.78948 1.87439 0
2.96295 0.122267 0
9.01973 1.87035 0
9.33844 0.117765 0
2.59982 1.87329 0
9.88162 0.655701 0
2.12395 1.07192 0
2.24854 0.999632 0
9.48012 1.86946 0
2.52875 0.12559 0
0.492608 1.12628 0
0.930817 1.10466 0
1.34176 1.12794 0
1.77054 1.13109 0
2.24857 1.14406 0
2.37358 1.07186 0
2.3733 0.927143 0
2.49943 0.999458 0
1.56716 1.87074 0
2.49899 0.853474 0
2.62564 0.926233 0
2.62583 1.07252 0
2.75257 0.999189 0
1.13143 1.87226 0
2.7525 1.1454 0
2.87977 1.07234 0
2.87952 0.925396 0
3.00715 0.998671 0
3.00692 0.851453 0
3.1347 0.92482 0
3.1349 1.07234 0
3.26272 0.998412 0
3.26287 1.14621 0
3.3909 1.07213 0
3.39064 0.924182 0
3.51898 0.997876 0
2.00361 1.86856 0
0.694794 1.86471 0
3.5192 1.14601 0
3.6474 1.07175 0
3.64712 0.923529 0
3.77564 0.997414 0
3.77533 0.849162 0
3.90391 0.923044 0
3.90423 1.07134 0
4.03258 0.996942 0
4.03288 1.14536 0
4.16131 1.07092 0
4.16099 0.922443 0
4.28974 0.996413 0
4.28942 0.84793 0
4.41821 0.921896 0
4.41854 1.07041 0
4.54704 0.995871 0
4.54737 1.14446 0
4.67591 1.06988 0
4.67556 0.921265 0
4.80444 0.995271 0
4.80407 0.846676 0
4.93294 0.920655 0
4.93333 1.06927 0
5.06186 0.994651 0
5.06224 1.14332 0
5.19081 1.06867 0
5.19042 0.920005 0
5.31937 0.994 0
5.31896 0.845366 0
5.44788 0.919338 0
5.44831 1.06798 0
5.57685 0.993312 0
5.57636 0.844669 0
5.70539 0.918617 0
5.7058 1.06729 0
5.83438 0.992571 0
5.83482 1.14123 0
5.96336 1.06654 0
5.96293 0.917849 0
6.0919 0.991792 0
6.09143 0.843138 0
6.2204 0.917062 0
6.22088 1.06573 0
6.34941 0.990989 0
6.34989 1.1397 0
6.47844 1.06492 0
6.47796 0.916234 0
6.60696 0.990142 0
6.60649 0.84148 0
6.73546 0.915373 0
6.73598 1.06404 0
6.86452 0.989263 0
6.86501 1.13798 0
6.99354 1.06317 0
6.99304 0.914473 0
7.12206 0.988356 0
7.12152 0.839699 0
7.25055 0.91356 0
7.25108 1.06223 0
7.37958 0.987418 0
7.38013 1.13614 0
7.50864 1.06129 0
7.50818 0.912564 0
7.63718 0.986435 0
7.63773 1.13516 0
7.76623 1.06029 0
7.76566 0.911589 0
7.89471 0.985412 0
7.89414 0.836818 0
8.02319 0.910637 0
8.02378 1.05924 0
8.15223 0.984348 0
8.15284 1.13305 0
8.28132 1.05813 0
8.28061 0.909615 0
8.40947 0.983134 0
8.40873 0.835031 0
8.53744 0.908474 0
8.53813 1.05635 0
8.66576 0.981984 0
8.66645 1.1295 0
8.79376 1.055 0
8.7931 0.907787 0
8.92089 0.980637 0
8.92011 0.833666 0
9.04772 0.906527 0
9.04843 1.05323 0
9.17496 0.979072 0
9.17587 1.12546 0
9.17414 0.832741 0
0.120572 1.49825 0
9.87866 1.49228 0
8.2819 1.20681 0
8.79456 1.2025 0
8.28008 0.761302 0
8.40817 0.686853 0
2.31343 1.87678 0
6.99254 0.765876 0
5.96253 0.769216 0
6.09095 0.694537 0
5.19007 0.771394 0
4.67524 0.772707 0
4.80369 0.698129 0
7.76513 0.762956 0
7.89372 0.688351 0
5.1912 1.21739 0
4.1607 0.773984 0
4.28912 0.699496 0
8.26644 1.87196 0
4.70944 1.87482 0
7.68657 1.87074 0
5.89552 1.87074 0
5.29848 1.87076 0
4.10509 1.87713 0
3.35441 1.87712 0
7.08792 1.87177 0
6.50584 1.87315 0
7.76683 1.20904 0
6.99406 1.21192 0
6.47893 1.21367 0
5.96409 1.21512 0
6.81481 0.1283 0
3.25495 0.125769 0
5.63309 0.119391 0
3.85072 0.119956 0
7.41176 0.123016 0
4.67624 1.21854 0
4.16158 1.21944 0
7.25014 0.764906 0
3.64678 0.77531 0
3.64766 1.21998 0
5.70641 1.21592 0
3.13439 0.777307 0
2.62517 0.780148 0
2.87992 1.21834 0
5.02938 0.122674 0
2.62613 1.21771 0
2.49841 0.707352 0
7.63829 1.28394 0
9.30125 0.905095 0
9.30039 0.75907 0
9.17357 0.686295 0
8.66716 1.27718 0
2.12544 1.21617 0
2.2489 1.28886 0
4.03305 1.29395 0
8.15348 1.28174 0
3.00654 0.70394 0
9.62957 0.118914 0
6.86552 1.28676 0
2.62457 0.633963 0
5.31855 0.696789 0
6.35031 1.28847 0
5.0626 1.29207 0
3.51931 1.29426 0
8.59141 0.116346 0
4.54765 1.29316 0
3.77498 0.700914 0
4.43754 0.139219 0
6.22136 0.137021 0
8.0089 0.145342 0
8.79556 1.35035 0
8.28258 1.35553 0
7.76742 1.35783 0
4.16186 1.36808 0
4.67487 0.624198 0
6.4794 1.36246 0
2.12497 1.36123 0
4.67657 1.36727 0
4.16032 0.62562 0
6.9946 1.36076 0
8.27965 0.613109 0
3.64788 1.36832 0
3.13407 0.629688 0
5.19162 1.36619 0
3.6465 0.627209 0
5.18964 0.622865 0
5.96212 0.620658 0
9.42747 0.830688 0
9.42764 0.684154 0
9.42802 0.976855 0
7.76461 0.614431 0
2.1219 0.356269 0
0.387426 1.869 0
7.63882 1.43281 0
4.03327 1.44267 0
4.80331 0.549654 0
6.47751 0.767597 0
6.60597 0.692879 0
6.47697 0.619035 0
8.79245 0.760605 0
8.1541 1.43051 0
2.49781 0.56133 0
8.66792 1.4251 0
6.60545 0.54434 0
2.24895 1.43436 0
6.35074 1.43733 0
3.51943 1.44274 0
4.54791 1.44198 0
6.86597 1.43563 0
4.28872 0.551082 0
3.00623 0.556476 0
8.40774 0.538587 0
2.62413 0.487779 0
5.0629 1.44093 0
5.31824 0.54815 0
3.77464 0.552702 0
6.09047 0.546019 0
8.79659 1.49835 0
8.92419 1.42353 0
7.89331 0.539946 0
7.76797 1.50669 0
4.16205 1.51684 0
4.67455 0.475762 0
9.55384 0.902717 0
9.55442 1.04868 0
2.1228 0.641083 0
9.88293 0.371311 0
8.28335 1.50388 0
2.12243 1.50701 0
1.99611 1.43388 0
3.64803 1.51688 0
6.47651 0.470551 0
3.13134 0.486307 0
3.26139 0.556165 0
5.18923 0.474228 0
6.47982 1.51135 0
6.99514 1.50966 0
7.12376 1.43473 0
5.18898 1.50993 0
5.32026 1.43945 0
4.67682 1.51612 0
4.15991 0.477351 0
3.64616 0.479241 0
8.27919 0.464906 0
5.96168 0.472162 0
5.83334 0.546771 0
7.76398 0.465926 0
7.63571 0.540643 0
8.15495 1.57891 0
9.76565 1.85595 0
5.8329 0.398344 0
5.70444 0.472929 0
0.118217 1.21462 0
6.35177 1.58519 0
6.22227 1.51205 0
8.40728 0.39043 0
8.53583 0.465027 0
3.5203 1.58997 0
3.4004 1.51519 0
4.03339 1.59145 0
6.6043 0.396997 0
6.73402 0.46992 0
8.92526 1.57152 0
9.05288 1.49667 0
7.63927 1.58163 0
7.51021 1.50771 0
4.2773 0.371288 0
1.99521 1.57974 0
1.86751 1.50792 0
1.86776 1.65285 0
1.74117 1.57886 0
1.74059 1.43449 0
1.61489 1.50494 0
1.61543 1.35915 0
1.48883 1.43085 0
1.48811 1.57673 0
1.36182 1.50275 0
1.36099 1.64913 0
1.23481 1.57487 0
1.23576 1.42874 0
1.10886 1.50061 0
8.7966 1.64623 0
4.54726 1.58939 0
9.42906 1.12229 0
9.55546 1.19395 0
9.43019 1.26749 0
9.55666 1.33929 0
9.43157 1.41296 0
9.55796 1.48492 0
9.4321 1.55869 0
9.68155 1.26609 0
5.44696 0.622162 0
5.44656 0.473705 0
8.91959 0.686468 0
8.79183 0.613336 0
8.91903 0.539118 0
3.13479 1.22019 0
7.12467 1.58318 0
3.51824 0.701514 0
2.49711 0.415508 0
8.79116 0.465938 0
4.80336 0.401976 0
9.30512 1.3427 0
2.37462 1.36187 0
2.37498 1.50786 0
7.63454 0.392985 0
7.50679 0.467041 0
7.50742 0.615359 0
7.37861 0.541613 0
2.50153 1.43512 0
2.50191 1.58166 0
2.62923 1.50854 0
1.11021 1.35494 0
0.983227 1.42656 0
0.981914 1.57231 0
0.856099 1.49814 0
6.08999 0.397585 0
5.31116 1.60289 0
5.44775 1.51271 0
5.44893 1.36504 0
5.57815 1.43923 0
2.37175 0.489898 0
2.36654 0.352463 0
6.8664 1.58456 0
3.25476 0.387889 0
0.854582 1.64439 0
0.728688 1.56977 0
0.730366 1.42588 0
0.602564 1.49668 0
5.56871 1.58502 0
5.70611 1.51309 0
3.00565 0.408456 0
5.06152 1.58429 0
3.77429 0.404517 0
9.55776 1.62847 0
7.89222 0.391214 0
7.37679 0.395443 0
7.24963 0.468215 0
8.91984 0.393877 0
9.04671 0.465227 0
9.04757 0.32009 0
9.17431 0.391144 0
2.12166 1.65348 0
2.62034 0.347042 0
5.69047 1.65663 0
5.83376 1.58649 0
0.123718 1.78571 0
0.600822 1.63825 0
0.475978 1.56623 0
0.477354 1.42243 0
2.23285 0.138762 0
8.15107 0.539422 0
8.15058 0.391191 0
3.64766 1.66422 0
9.04935 1.19984 0
6.21892 0.471384 0
4.9317 0.475246 0
4.41536 0.471291 0
5.70458 0.621432 0
6.34855 0.693693 0
3.90282 0.478251 0
5.0612 0.697423 0
4.54636 0.698817 0
8.66447 0.68717 0
4.03189 0.700206 0
3.26289 1.29429 0
3.13418 1.36529 0
2.75168 0.706076 0
7.25163 1.21097 0
3.38854 0.477758 0
3.39825 0.317719 0
7.3807 1.28487 0
7.89598 1.28288 0
6.60796 1.28758 0
8.5394 1.35185 0
8.54015 1.50029 0
4.80513 1.29258 0
4.29035 1.29354 0
8.02558 1.50544 0
2.75039 0.414302 0
2.74599 0.257681 0
3.77615 1.29406 0
5.83677 1.43886 0
[...]
CELL_DATA 1987
VECTORS velocity double
0.0724081 0.000198576 0.0
-0.0860473 -0.0242146 0.0
0.16497 -0.0344692 0.0
-0.102449 -0.0212192 0.0
0.982332 0.0126466 0.0
0.345761 0.00152475 0.0
1.04377 0.00899966 0.0
1.07897 0.0323396 0.0
0.314399 -0.014312 0.0
0.350664 -0.00345511 0.0
0.173923 -0.0544848 0.0
0.180214 -0.0327143 0.0
0.345583 0.00246332 0.0
1.11601 -0.0369099 0.0
0.307457 -0.0134975 0.0
0.419761 -0.000466512 0.0
0.281679 -0.00351454 0.0
0.189609 -0.0604188 0.0
0.271266 0.000561011 0.0
0.0628371 0.00121615 0.0
0.88356 0.0376846 0.0
1.10627 -0.0212284 0.0
0.359576 0.0037362 0.0
0.351385 -0.00259751 0.0
0.356365 0.0050547 0.0
0.317223 -0.00764225 0.0
0.208929 -0.0578307 0.0
0.877746 0.012803 0.0
0.884696 -0.0160772 0.0
1.08571 -0.0949199 0.0
0.360869 0.00135107 0.0
0.302711 -0.000496775 0.0
0.347923 0.00215271 0.0
0.129002 0.0015586 0.0
0.346983 0.000779026 0.0
0.406798 -0.00169687 0.0
1.17932 0.167232 0.0
-0.0738513 0.017633 0.0
0.256564 -0.000496703 0.0
-0.0706745 0.0271829 0.0
0.95579 -0.0092965 0.0
0.853002 0.0039563 0.0
0.288701 0.00162789 0.0
0.265418 -0.00146569 0.0
1.15408 -0.119556 0.0
0.266668 -0.00538819 0.0
0.720456 -0.00185447 0.0
0.398893 -0.0049659 0.0
0.720643 -0.0014254 0.0
0.445066 0.000919974 0.0
1.02697 -0.017631 0.0
-0.125415 -0.00182192 0.0
0.62555 -0.0410593 0.0
0.259085 0.00625898 0.0
0.283726 0.00634106 0.0
1.12987 -0.0535252 0.0
0.252757 -0.0110753 0.0
0.711 -0.0322313 0.0
0.122764 0.000572678 0.0
0.238507 0.00137598 0.0
0.458438 -0.0248181 0.0
0.246937 -0.000816935 0.0
1.11259 0.0934145 0.0
0.446192 -0.0030482 0.0
0.448857 0.000950993 0.0
0.29248 0.000510388 0.0
0.297525 -0.000347501 0.0
0.230374 -0.00382307 0.0
-0.100339 -0.0243145 0.0
0.273616 0.00254051 0.0
1.17195 -0.0873932 0.0
0.610854 -0.00406607 0.0
0.617524 -0.00205821 0.0
0.391098 -0.0017976 0.0
0.30646 -0.0023406 0.0
1.35191 -0.112249 0.0
0.977705 -0.127917 0.0
0.252256 0.000159404 0.0
-0.140623 0.00569735 0.0
0.425579 -0.00809389 0.0
0.275744 -0.0084681 0.0
1.15763 0.207285 0.0
0.932104 -0.0123172 0.0
0.445144 0.00199453 0.0
0.272077 -5.29617e-06 0.0
0.747984 -0.0352272 0.0
1.10648 -0.00922204 0.0
-0.0842134 -0.0118225 0.0
0.252418 0.00104755 0.0
0.0258284 -0.0193118 0.0
1.11598 -0.0216486 0.0
0.279951 0.0019313 0.0
0.9928 -0.00987505 0.0
0.0648736 -0.0335732 0.0
-0.115271 0.0103279 0.0
1.18727 -0.181531 0.0
0.229926 0.0018632 0.0
0.953761 -0.12026 0.0
0.241934 -0.00442311 0.0
0.330098 -0.00162327 0.0
1.02687 0.0051477 0.0
1.18278 -0.0837718 0.0
0.257301 -0.000989794 0.0
0.283081 -0.00316936 0.0
1.12322 0.0673145 0.0
0.438686 -0.000253165 0.0
0.286501 -0.00102875 0.0
0.441656 -0.0105227 0.0
1.28597 -0.102218 0.0
0.398054 -0.020998 0.0
0.942919 -0.032612 0.0
0.240106 0.00111791 0.0
0.223186 -0.000730249 0.0
0.43917 0.000410738 0.0
-0.0741333 -0.0372348 0.0
0.389352 0.00325315 0.0
0.308198 -0.00749756 0.0
0.998187 0.115932 0.0
0.282661 -0.00839878 0.0
-0.096012 -0.0216673 0.0
1.09373 0.0214529 0.0
0.689724 -0.00114517 0.0
0.639494 -0.000759258 0.0
0.70687 -0.000280229 0.0
0.966817 0.00816453 0.0
0.963897 0.107491 0.0
0.262836 0.00389769 0.0
-0.0234735 0.105493 0.0
0.443094 -0.000442285 0.0
0.276731 0.0130746 0.0
0.142933 -0.0170203 0.0
0.317492 0.00305441 0.0
0.300993 0.00186071 0.0
0.129104 0.00339174 0.0
0.603651 -0.000247707 0.0
0.745456 0.0180127 0.0
0.639208 -0.000339929 0.0
0.977009 -0.0050994 0.0
0.667407 -0.000786677 0.0
-0.0231279 0.113162 0.0
1.15776 -0.208601 0.0
0.707458 -0.000464811 0.0
0.992314 -0.0184775 0.0
0.559306 0.00413103 0.0
0.275563 0.00531274 0.0
0.692021 -0.000264001 0.0
0.346535 -0.000746035 0.0
0.511895 0.00270818 0.0
0.25831 0.00540781 0.0
0.645421 0.00106808 0.0
1.36333 -0.014595 0.0
0.245992 -0.0030119 0.0
0.525278 0.00333874 0.0
1.31079 0.0304472 0.0
0.285111 0.00293627 0.0
0.511663 0.00314473 0.0
0.116095 0.00305715 0.0
0.640743 0.00107713 0.0
1.06197 -0.0200513 0.0
0.644318 0.00158936 0.0
0.667715 -0.00125931 0.0
0.532343 -0.047642 0.0
0.512375 0.000617633 0.0
0.512887 0.00102239 0.0
0.671288 0.00209676 0.0
0.269983 0.000731827 0.0
0.304416 -0.0128488 0.0
0.560063 0.00345417 0.0
0.576984 0.00343986 0.0
1.4111 -0.0163691 0.0
0.505321 0.00203965 0.0
0.563849 0.00220741 0.0
-0.0350459 0.00554701 0.0
0.603314 0.000237724 0.0
1.24047 -0.000401437 0.0
0.647702 0.00364562 0.0
-0.0425304 0.100878 0.0
0.609084 0.00338231 0.0
1.33466 0.00194877 0.0
0.577748 0.00347771 0.0
0.110915 -0.0013766 0.0
0.254275 -0.0351105 0.0
0.650745 -0.00160996 0.0
-0.0444214 0.0853725 0.0
0.619499 0.00354385 0.0
0.718402 -0.000210791 0.0
0.054 0.0018144 0.0
0.534009 -0.0354242 0.0
0.604444 0.00103579 0.0
0.108223 0.000159553 0.0
0.649985 -0.00105249 0.0
0.460124 -0.0347591 0.0
1.09803 -0.147318 0.0
0.303983 -0.00218371 0.0
0.177144 -0.0107228 0.0
0.249783 -0.0779784 0.0
0.673329 0.00289275 0.0
1.23843 0.00337679 0.0
0.294845 -0.0102904 0.0
0.321588 -0.0097549 0.0
1.2669 -0.028878 0.0
0.111369 -0.00113504 0.0
0.606921 -0.0224914 0.0
0.512747 -0.00534577 0.0
0.555369 -0.00308349 0.0
0.11179 0.00228051 0.0
1.33227 -0.00237567 0.0
0.357092 -0.0369571 0.0
0.567649 0.000554411 0.0
0.654609 0.00377377 0.0
0.115781 -0.000541315 0.0
-0.00414515 0.00307435 0.0
0.493088 -0.0223032 0.0
0.643091 0.00207222 0.0
0.646646 -0.0275573 0.0
-0.0199096 0.00719985 0.0
0.270775 -0.0934453 0.0
0.466109 -0.0306525 0.0
1.2771 -0.000290168 0.0
0.279622 -0.0549966 0.0
0.495147 -0.0219664 0.0
0.276617 -0.0152071 0.0
1.20796 0.0493292 0.0
0.515175 -0.0457283 0.0
0.682451 -0.0264987 0.0
0.620032 0.00346629 0.0
0.578093 -0.0494432 0.0
1.38725 0.00223514 0.0
1.23741 0.000364548 0.0
0.338292 -0.0722972 0.0
0.637216 -0.00372034 0.0
0.543045 -0.00473776 0.0
1.41877 -0.0396941 0.0
1.3729 0.00694579 0.0
1.37102 -0.0233443 0.0
0.681986 0.00421441 0.0
0.575142 -0.00151789 0.0
0.617026 -0.00207378 0.0
0.202606 -0.0112678 0.0
0.0012012 0.0671623 0.0
-0.0488783 0.00507238 0.0
0.557865 -0.000886695 0.0
0.040824 -0.000188705 0.0
1.34297 -0.00156093 0.0
0.672926 0.00312257 0.0
1.40162 -0.00816557 0.0
0.252484 -0.0472108 0.0
-0.0704854 0.0767425 0.0
0.165225 -8.53593e-05 0.0
0.552655 -0.0245814 0.0
1.37991 -0.00294362 0.0
1.35755 -0.00202471 0.0
0.71739 -0.000500124 0.0
1.4133 -0.0554083 0.0
-0.0384158 0.0281636 0.0
0.458491 -0.00106754 0.0
0.721505 -0.000121376 0.0
0.718031 0.000203267 0.0
0.56666 0.00198169 0.0
1.23292 0.115063 0.0
0.675858 0.00421419 0.0
0.0417259 0.00093293 0.0
0.616401 -0.00150174 0.0
0.655127 0.00380207 0.0
0.555907 -0.0213673 0.0
0.695963 -0.000230951 0.0
0.16054 -0.0716892 0.0
0.268724 -0.00337813 0.0
0.710997 -4.10648e-05 0.0
1.40162 -0.0121516 0.0
1.36958 -0.048983 0.0
0.505813 -0.00263461 0.0
0.110409 -0.000405337 0.0
1.42288 -0.0131416 0.0
0.557967 -0.000766427 0.0
0.538981 -0.0316191 0.0
-0.0684701 0.00292159 0.0
0.702066 0.00464509 0.0
0.717452 0.000544957 0.0
0.430365 -0.0849057 0.0
0.636382 -0.00207881 0.0
0.569699 -0.0042075 0.0
0.676505 -0.000298317 0.0
0.685297 -0.0064065 0.0
0.0488741 0.0535917 0.0
0.0439098 -8.20644e-06 0.0
0.0388421 -0.000388118 0.0
0.108947 -0.000374879 0.0
0.433985 -0.129146 0.0
0.708859 0.000628521 0.0
0.269073 -0.0154747 0.0
0.682446 0.00421904 0.0
0.711283 0.00357492 0.0
0.270511 -0.00438424 0.0
0.663197 -0.0729748 0.0
0.694672 0.00133947 0.0
0.374095 -0.0212299 0.0
0.64552 -0.00985582 0.0
0.50582 -0.00112613 0.0
0.60876 0.00170621 0.0
0.715262 0.00499908 0.0
0.19639 -0.000822253 0.0
0.209826 -0.00726571 0.0
0.257667 -0.0110316 0.0
0.269085 -0.0954788 0.0
0.707786 0.00462376 0.0
0.720781 0.000133863 0.0
0.665424 -0.00271173 0.0
0.692648 0.00269151 0.0
0.120157 -0.00139565 0.0
1.04266 -0.0659646 0.0
0.720417 0.00417431 0.0
0.601241 -0.00108508 0.0
0.684454 0.00221587 0.0
0.605628 0.00216667 0.0
0.721802 0.000915028 0.0
0.506668 -0.000397807 0.0
0.522808 -0.0884798 0.0
0.716691 -0.000424004 0.0
0.527627 -0.00161391 0.0
0.641249 0.000669548 0.0
0.719221 0.00245326 0.0
0.671254 0.00148532 0.0
-0.0166381 0.00240594 0.0
-0.130457 -0.000416533 0.0
0.570895 -0.00259803 0.0
0.505726 0.00127206 0.0
0.106478 -0.00363119 0.0
0.127728 -0.00448418 0.0
1.25139 0.085027 0.0
0.186983 -0.00713579 0.0
0.0411198 4.50347e-05 0.0
0.698903 0.00450622 0.0
0.693573 0.00242159 0.0
0.607801 0.00159869 0.0
0.602139 0.00407137 0.0
0.722446 0.00390589 0.0
0.779653 -0.0749719 0.0
0.718579 0.0035059 0.0
0.10995 -0.000119434 0.0
0.718729 0.0013987 0.0
0.722017 0.00202994 0.0
-0.0735199 0.00151087 0.0
0.670692 0.0017976 0.0
0.722712 0.00462779 0.0
0.670905 -0.00459349 0.0
0.722202 0.00301489 0.0
0.0422603 0.000453753 0.0
-0.0798818 0.0731688 0.0
0.623405 -0.0584581 0.0
0.655261 -0.0035113 0.0
1.28019 -0.0438034 0.0
0.702509 0.00459928 0.0
0.706992 -0.00486206 0.0
0.0379523 -0.000348222 0.0
-0.0602739 0.00395539 0.0
-0.0105237 0.00293152 0.0
1.41141 -0.0435667 0.0
0.719763 0.00439403 0.0
1.34435 -0.00329861 0.0
0.561582 -0.0362118 0.0
1.41211 -0.0297006 0.0
0.309984 -0.0593973 0.0
0.557969 0.000619587 0.0
0.709436 -0.0211753 0.0
0.0370308 0.000110358 0.0
-0.0219548 0.00197279 0.0
0.325212 -0.111558 0.0
0.655252 0.0028078 0.0
0.683545 -0.0232684 0.0
1.39227 -0.00625447 0.0
0.711666 0.00452737 0.0
1.306 -0.0350418 0.0
0.694983 -0.121729 0.0
0.558373 0.00030215 0.0
0.279958 -0.00355432 0.0
0.619887 0.0027926 0.0
0.439566 -0.0790155 0.0
0.543301 -0.125931 0.0
0.721475 0.00328902 0.0
0.710139 -0.0298429 0.0
1.41434 -0.0100417 0.0
0.718408 0.00070057 0.0
0.0237647 0.039966 0.0
0.601343 -0.00210039 0.0
0.654508 -0.00498095 0.0
0.718068 0.00173549 0.0
0.183048 -0.0766417 0.0
0.706427 -0.0704378 0.0
0.118221 -0.00440366 0.0
0.148727 -0.0077289 0.0
0.0547949 -0.0178465 0.0
0.517884 0.00173065 0.0
-0.0357569 -0.0158452 0.0
0.0539324 -0.000753671 0.0
0.450919 -0.00770028 0.0
-0.0218967 0.0675081 0.0
0.489727 -0.0243148 0.0
0.479782 -0.0236926 0.0
0.0429758 4.92026e-05 0.0
0.736037 -0.0596117 0.0
0.664505 -0.172379 0.0
0.628663 -0.122386 0.0
0.576534 -0.102336 0.0
0.694736 0.00313482 0.0
0.72102 0.00478356 0.0
0.679305 -0.0114089 0.0
0.669486 -0.200208 0.0
0.72173 0.00414571 0.0
0.091696 0.00024553 0.0
0.513619 -0.0289757 0.0
0.142825 -0.0705155 0.0
-0.029389 0.000800351 0.0
0.718955 0.00150473 0.0
0.225914 7.81863e-05 0.0
0.605308 0.00216485 0.0
0.706185 0.000912416 0.0
0.270712 -0.0013053 0.0
0.721978 0.00480208 0.0
0.620238 -0.064349 0.0
0.718551 0.00273584 0.0
0.504209 0.000385307 0.0
0.627465 -0.130113 0.0
0.721283 0.00233283 0.0
0.182126 -0.00622487 0.0
0.729257 -0.0231994 0.0
0.719775 0.00265961 0.0
0.439617 0.000295018 0.0
0.670455 -0.200412 0.0
0.694496 -0.113801 0.0
-0.0733867 0.000522489 0.0
0.515768 -0.00946195 0.0
0.777646 -0.208279 0.0
0.721107 -0.0017502 0.0
0.732343 -0.0366303 0.0
0.565236 0.00144538 0.0
0.565773 -0.164953 0.0
0.559591 0.00192734 0.0
0.706768 -0.0642301 0.0
0.106666 0.00184669 0.0
0.644133 0.00276989 0.0
0.757881 -0.0627559 0.0
-0.121833 -0.00406031 0.0
0.477344 -0.109827 0.0
1.06436 -0.212921 0.0
0.683791 0.00379683 0.0
0.707424 -0.00333602 0.0
-0.0255527 0.00134577 0.0
0.274513 -0.00321303 0.0
0.695943 0.00391998 0.0
0.725661 0.0035712 0.0
-0.136362 -0.00472554 0.0
0.642096 0.00227249 0.0
0.606906 0.00203698 0.0
0.738645 -0.019499 0.0
0.207442 -0.0266378 0.0
0.741784 -0.108992 0.0
0.231586 -0.00187061 0.0
0.7193 0.00197166 0.0
0.708309 0.00102533 0.0
0.721978 0.00527206 0.0
0.691641 0.000145338 0.0
0.70968 -0.0336895 0.0
0.0386458 0.000419894 0.0
0.723613 -0.00570703 0.0
0.676341 0.00422836 0.0
0.718294 0.00491274 0.0
0.782507 -0.210964 0.0
0.704017 0.00441821 0.0
-0.0325354 0.000117671 0.0
0.698444 0.00448001 0.0
0.559761 0.00144788 0.0
0.717156 0.00495042 0.0
0.717797 0.00377121 0.0
0.71572 0.00495156 0.0
0.0333846 -2.19285e-05 0.0
-0.0734433 -0.00114667 0.0
0.107159 -0.000435404 0.0
0.106384 -6.39155e-06 0.0
0.0960884 -0.000704955 0.0
0.13475 -0.00330895 0.0
0.10283 -3.40214e-05 0.0
0.0990718 -9.08756e-05 0.0
0.0922983 0.00175472 0.0
0.102859 0.000163239 0.0
0.0937398 0.00148796 0.0
0.0929157 -0.00199637 0.0
0.104756 0.00146018 0.0
0.10368 -0.000256481 0.0
0.104461 -0.00145101 0.0
0.111756 -0.000957843 0.0
0.0598754 -0.00283222 0.0
0.663062 -0.165407 0.0
1.07563 -0.212031 0.0
0.505953 0.00157123 0.0
0.683686 0.00150659 0.0
0.647508 0.00344371 0.0
0.504461 -0.000548625 0.0
0.678027 0.00397622 0.0
0.79497 -0.178447 0.0
0.513464 -0.174756 0.0
0.720339 0.00491118 0.0
0.721095 0.00124231 0.0
0.618102 -0.000797489 0.0
0.224629 -0.00196545 0.0
0.684863 -0.0011855 0.0
0.519383 0.00117721 0.0
0.654638 -0.000207975 0.0
0.572998 0.000892506 0.0
0.564555 0.00165808 0.0
0.603991 0.00150237 0.0
0.685196 -0.0136367 0.0
0.703472 0.00426211 0.0
0.56919 -0.00999803 0.0
0.653687 -0.0115309 0.0
0.614999 -0.012122 0.0
0.705641 -5.0898e-05 0.0
0.708427 -0.0117963 0.0
0.827199 -0.181503 0.0
-0.0317527 -0.000433143 0.0
0.673223 -0.0525217 0.0
0.582387 -0.0445501 0.0
0.223717 -0.00861121 0.0
0.648548 -0.0968649 0.0
1.14766 -0.144494 0.0
0.71426 0.00484667 0.0
0.718452 0.00432463 0.0
0.72142 -0.000556899 0.0
0.726294 -0.0131106 0.0
0.448767 -0.00755781 0.0
0.634682 -0.0457596 0.0
0.708813 -0.0499493 0.0
0.735353 -0.0540244 0.0
0.440799 -0.00898246 0.0
0.739932 -0.101311 0.0
0.702032 -0.0948756 0.0
0.528981 -0.0817161 0.0
0.712275 0.00432847 0.0
0.611817 0.00269042 0.0
0.706201 -0.0300649 0.0
0.730266 -0.00214657 0.0
0.600139 -0.0861836 0.0
0.735872 -0.157363 0.0
0.706953 0.00477736 0.0
0.590129 -0.189066 0.0
0.394963 -0.0582029 0.0
0.474934 -0.0679184 0.0
0.518784 0.00135675 0.0
0.739175 -0.165133 0.0
0.718161 0.00183016 0.0
0.267537 -0.000232204 0.0
0.789534 -0.171228 0.0
0.723114 0.00534457 0.0
0.602117 -0.146431 0.0
0.50916 0.00325684 0.0
0.723639 0.00534536 0.0
0.565282 -0.0137237 0.0
0.523416 0.0040963 0.0
0.663736 -0.0216569 0.0
0.5118 -0.00678425 0.0
0.716647 0.00487817 0.0
0.721004 0.00510589 0.0
0.295924 -0.0490141 0.0
0.724296 0.00489783 0.0
0.507361 -0.0147537 0.0
0.517112 0.00214541 0.0
0.727528 0.00090041 0.0
0.516582 0.000517538 0.0
0.567877 0.00177399 0.0
0.733939 -0.0102526 0.0
0.595214 -0.0344333 0.0
0.683215 -0.148854 0.0
0.729429 -0.026546 0.0
0.601284 -0.153917 0.0
0.0791649 -0.00448413 0.0
0.44004 -0.123899 0.0
0.719133 0.00361719 0.0
0.751518 -0.0482167 0.0
0.725589 -0.181522 0.0
0.101106 0.00101207 0.0
0.111492 0.000559506 0.0
0.093903 -0.000438991 0.0
0.105674 -7.92605e-05 0.0
0.112375 -0.00290023 0.0
0.0945525 0.00181313 0.0
0.0943801 0.000587076 0.0
0.120468 -0.00109579 0.0
0.10365 0.000881339 0.0
0.090684 0.000165963 0.0
0.102439 -0.00041533 0.0
0.107124 -0.0025898 0.0
0.106172 0.000608763 0.0
0.0981498 0.00184971 0.0
0.738105 -0.0166605 0.0
0.726111 0.00402661 0.0
0.722521 0.00522101 0.0
0.65979 -0.018605 0.0
0.429905 -0.0474359 0.0
0.363267 -0.103067 0.0
0.544334 -0.000915002 0.0
0.722585 0.00539756 0.0
0.609378 -0.0122366 0.0
0.682156 -0.140803 0.0
0.524364 0.00278006 0.0
0.540106 -0.133407 0.0
0.723252 0.00562065 0.0
0.72522 0.0047452 0.0
0.501018 -0.14451 0.0
0.571931 0.00241833 0.0
0.729343 -0.000237013 0.0
0.272903 -0.0836725 0.0
0.512956 -0.0100797 0.0
0.738422 -0.0129657 0.0
0.775875 -0.113772 0.0
0.74447 -0.0319293 0.0
0.646943 -0.104582 0.0
0.707937 -0.200829 0.0
0.452899 0.00236902 0.0
0.765802 -0.0549539 0.0
0.684688 -0.0082189 0.0
1.28239 -0.076939 0.0
0.484409 -0.101901 0.0
0.0339346 -0.000114776 0.0
0.0505335 -0.00141426 0.0
0.0480509 -0.000295739 0.0
0.0334306 0.00061288 0.0
0.03588 0.000179037 0.0
0.0394024 -5.26064e-05 0.0
0.0294535 0.000118141 0.0
0.0979003 -0.00422348 0.0
0.0405153 0.000629933 0.0
0.0378605 -0.000154282 0.0
0.0314023 -0.000144668 0.0
0.034307 -0.000444815 0.0
0.0393049 -0.0012871 0.0
0.0407879 7.07678e-05 0.0
0.0362943 0.000324234 0.0
0.0309934 -0.000238771 0.0
0.0395906 9.58677e-05 0.0
0.0358155 7.43254e-06 0.0
0.704915 -0.197161 0.0
0.700603 0.0044541 0.0
0.723485 -0.00751427 0.0
0.769449 -0.0936418 0.0
0.671582 -0.0580156 0.0
0.3845 -0.0636918 0.0
0.717673 0.00454358 0.0
0.661435 -0.0796523 0.0
0.438766 0.000845445 0.0
0.697154 0.00452505 0.0
0.32195 -0.0781081 0.0
0.684211 -0.00240165 0.0
0.613533 -0.0139705 0.0
0.796388 -0.103387 0.0
0.726314 -0.0156044 0.0
0.518234 -0.000283632 0.0
0.574236 0.00236148 0.0
0.569823 -0.00841432 0.0
0.717925 0.00401328 0.0
0.59708 -0.00426455 0.0
0.713773 0.00487054 0.0
0.708792 -0.00965196 0.0
0.730242 -0.00357578 0.0
0.444268 -0.00763677 0.0
0.4384 0.00249302 0.0
0.0403324 6.85532e-05 0.0
0.0407999 0.000144728 0.0
0.0358789 0.000198757 0.0
0.0365862 0.000183379 0.0
0.0390253 -0.00100077 0.0
0.0312014 0.000726938 0.0
0.0334419 0.000109327 0.0
0.0410078 -0.00134559 0.0
0.0438007 3.97991e-05 0.0
0.0351688 -0.000605493 0.0
0.0392972 0.000378557 0.0
0.0393698 8.98146e-05 0.0
0.0417861 -0.00110248 0.0
0.0358517 0.000101201 0.0
0.73803 -0.0757286 0.0
0.563288 -0.0161835 0.0
0.759873 -0.0688385 0.0
0.739207 -0.0825082 0.0
0.503671 -0.0157613 0.0
0.637379 -0.041203 0.0
0.721626 0.0050574 0.0
0.72481 0.00507334 0.0
0.727805 0.00177912 0.0
0.517123 0.00205104 0.0
0.590797 -0.187816 0.0
0.73369 -0.0081734 0.0
0.723244 0.00532558 0.0
0.0931571 0.000161445 0.0
0.723837 0.00556758 0.0
0.77957 -0.121662 0.0
0.598483 -0.0306682 0.0
0.725696 0.0050255 0.0
0.568514 0.00140554 0.0
0.523141 0.00329829 0.0
0.54246 -0.000208543 0.0
0.516135 -0.172473 0.0
0.572113 0.00299129 0.0
0.729369 0.000817111 0.0
0.606627 -0.00992197 0.0
0.482552 -0.0613594 0.0
-0.0390084 -0.00219746 0.0
0.704588 0.00289395 0.0
0.094106 -0.0804439 0.0
0.611972 0.00273307 0.0
0.750152 -0.0433332 0.0
0.702032 -0.0875154 0.0
0.737724 -0.0106302 0.0
0.708098 0.00325834 0.0
0.743566 -0.0281527 0.0
0.618698 0.00217212 0.0
1.05616 -0.11588 0.0
0.440148 -0.0431635 0.0
0.617013 -0.00598471 0.0
0.76332 -0.0496587 0.0
0.710134 0.000168424 0.0
0.572694 -0.110409 0.0
0.643832 0.00307364 0.0
0.788807 -0.15104 0.0
0.308135 -0.132285 0.0
0.73982 -0.129285 0.0
0.655573 0.000818346 0.0
0.76666 -0.0864881 0.0
0.367514 -0.0932624 0.0
0.114831 -0.0826985 0.0
0.038102 -0.000328201 0.0
0.635063 -0.187236 0.0
0.559408 0.00214381 0.0
0.0750736 -0.0615486 0.0
0.0519213 -0.0604633 0.0
0.833363 -0.161859 0.0
0.709848 -0.0182759 0.0
0.235383 -0.113525 0.0
0.688526 0.00506839 0.0
0.791942 -0.0960167 0.0
0.652153 -0.0172505 0.0
0.732719 -0.0410175 0.0
0.440842 -0.157516 0.0
0.718771 0.00255515 0.0
0.654582 -0.00949566 0.0
0.184461 -0.0920357 0.0
0.784166 -0.143002 0.0
0.722925 0.00506771 0.0
0.678394 -0.0403339 0.0
0.628641 0.00343171 0.0
0.223865 0.000258935 0.0
0.729317 -0.0322809 0.0
0.687811 0.00380321 0.0
0.505034 0.00275729 0.0
0.674887 0.0037021 0.0
0.503652 0.00176822 0.0
0.745511 -0.079015 0.0
0.503669 0.00154073 0.0
0.504259 0.00106718 0.0
0.742396 -0.13743 0.0
0.111393 -0.000165823 0.0
1.16512 -0.142712 0.0
0.58801 0.00385816 0.0
0.436982 0.000957841 0.0
0.248222 -0.111637 0.0
0.664889 0.00483774 0.0
0.0384843 -0.000142602 0.0
0.650686 -0.0199238 0.0
0.718069 0.00557586 0.0
0.724666 0.00558301 0.0
0.575002 0.00284644 0.0
0.727119 0.00358249 0.0
0.591423 0.00526212 0.0
-0.0638049 -0.00551574 0.0
0.732837 -0.00378366 0.0
0.642016 -0.0442933 0.0
0.615215 0.00270802 0.0
0.201037 -0.0893278 0.0
0.54919 -0.00462549 0.0
0.71836 0.00583506 0.0
0.616167 -0.00759946 0.0
0.719876 0.0048375 0.0
0.54555 0.00474301 0.0
0.203081 -0.0924374 0.0
0.744218 -0.0201327 0.0
0.724485 -0.00015994 0.0
0.560368 0.0018168 0.0
0.486406 0.000263687 0.0
0.603803 -0.0791641 0.0
0.995705 -0.00536141 0.0
0.735579 -0.0129676 0.0
0.75266 -0.0329179 0.0
0.0192351 -0.00371452 0.0
0.581833 -0.0202707 0.0
0.00235834 -0.0413939 0.0
0.564281 0.00173824 0.0
0.555022 -0.0104436 0.0
0.562083 0.00284681 0.0
0.53869 0.00501812 0.0
0.679776 -0.036078 0.0
0.59013 0.005185 0.0
0.541545 0.00486756 0.0
0.661651 0.00405316 0.0
0.656131 0.00317199 0.0
0.550776 0.00385133 0.0
0.771417 -0.0552843 0.0
0.776443 -0.0707549 0.0
0.607353 0.00268705 0.0
0.622971 -0.0183362 0.0
0.127093 -0.00233016 0.0
0.0330142 -0.00259683 0.0
0.0608099 0.000384231 0.0
0.709633 0.00182636 0.0
0.43852 0.000111087 0.0
0.0282743 -0.00132065 0.0
0.0574137 -0.000718408 0.0
0.684403 -0.0160315 0.0
0.826709 -0.154193 0.0
0.664607 0.00161342 0.0
0.0543284 0.000538617 0.0
0.693612 0.00238968 0.0
0.729216 -0.187744 0.0
0.0245005 -0.00190577 0.0
0.0379362 0.000200845 0.0