# vtk DataFile Version 3.0
Malha 2D com triângulos e temperatura
ASCII
DATASET UNSTRUCTURED_GRID

POINTS 10000 double
0 0 0
1 0 0
1 1 0
0 1 0
0.010101 0 0
0.020202 0 0
0.030303 0 0
0.040404 0 0
0.0505051 0 0
0.0606061 0 0
0.0707071 0 0
0.0808081 0 0
0.0909091 0 0
0.10101 0 0
0.111111 0 0
0.121212 0 0
0.131313 0 0
0.141414 0 0
0.151515 0 0
0.161616 0 0
0.171717 0 0
0.181818 0 0
0.191919 0 0
0.20202 0 0
0.212121 0 0
0.222222 0 0
0.232323 0 0
0.242424 0 0
0.252525 0 0
0.262626 0 0
0.272727 0 0
0.282828 0 0
0.292929 0 0
0.30303 0 0
0.313131 0 0
0.323232 0 0
0.333333 0 0
0.343434 0 0
0.353535 0 0
0.363636 0 0
0.373737 0 0
0.383838 0 0
0.393939 0 0
0.40404 0 0
0.414141 0 0
0.424242 0 0
0.434343 0 0
0.444444 0 0
0.454545 0 0
0.464646 0 0
0.474747 0 0
0.484848 0 0
0.494949 0 0
0.505051 0 0
0.515152 0 0
0.525253 0 0
0.535354 0 0
0.545455 0 0
0.555556 0 0
0.565657 0 0
0.575758 0 0
0.585859 0 0
0.59596 0 0
0.606061 0 0
0.616162 0 0
0.626263 0 0
0.636364 0 0
0.646465 0 0
0.656566 0 0
0.666667 0 0
0.676768 0 0
0.686869 0 0
0.69697 0 0
0.707071 0 0
0.717172 0 0
0.727273 0 0
0.737374 0 0
0.747475 0 0
0.757576 0 0
0.767677 0 0
0.777778 0 0
0.787879 0 0
0.79798 0 0
0.808081 0 0
0.818182 0 0
0.828283 0 0
0.838384 0 0
0.848485 0 0
0.858586 0 0
0.868687 0 0
0.878788 0 0
0.888889 0 0
0.89899 0 0
0.909091 0 0
0.919192 0 0
0.929293 0 0
0.939394 0 0
0.949495 0 0
0.959596 0 0
0.969697 0 0
0.979798 0 0
0.989899 0 0
1 0.010101 0
1 0.020202 0
1 0.030303 0
1 0.040404 0
1 0.0505051 0
1 0.0606061 0
1 0.0707071 0
1 0.0808081 0
1 0.0909091 0
1 0.10101 0
1 0.111111 0
1 0.121212 0
1 0.131313 0
1 0.141414 0
1 0.151515 0
1 0.161616 0
1 0.171717 0
1 0.181818 0
1 0.191919 0
1 0.20202 0
1 0.212121 0
1 0.222222 0
1 0.232323 0
1 0.242424 0
1 0.252525 0
1 0.262626 0
1 0.272727 0
1 0.282828 0
1 0.292929 0
1 0.30303 0
1 0.313131 0
1 0.323232 0
1 0.333333 0
1 0.343434 0
1 0.353535 0
1 0.363636 0
1 0.373737 0
1 0.383838 0
1 0.393939 0
1 0.40404 0
1 0.414141 0
1 0.424242 0
1 0.434343 0
1 0.444444 0
1 0.454545 0
1 0.464646 0
1 0.474747 0
1 0.484848 0
1 0.494949 0
1 0.505051 0
1 0.515152 0
1 0.525253 0
1 0.535354 0
1 0.545455 0
1 0.555556 0
1 0.565657 0
1 0.575758 0
1 0.585859 0
1 0.59596 0
1 0.606061 0
1 0.616162 0
1 0.626263 0
1 0.636364 0
1 0.646465 0
1 0.656566 0
1 0.666667 0
1 0.676768 0
1 0.686869 0
1 0.69697 0
1 0.707071 0
1 0.717172 0
1 0.727273 0
1 0.737374 0
1 0.747475 0
1 0.757576 0
1 0.767677 0
1 0.777778 0
1 0.787879 0
1 0.79798 0
1 0.808081 0
1 0.818182 0
1 0.828283 0
1 0.838384 0
1 0.848485 0
1 0.858586 0
1 0.868687 0
1 0.878788 0
1 0.888889 0
1 0.89899 0
1 0.909091 0
1 0.919192 0
1 0.929293 0
1 0.939394 0
1 0.949495 0
1 0.959596 0
1 0.969697 0
1 0.979798 0
1 0.989899 0
0.989899 1 0
0.979798 1 0
0.969697 1 0
0.959596 1 0
0.949495 1 0
0.939394 1 0
0.929293 1 0
0.919192 1 0
0.909091 1 0
0.89899 1 0
0.888889 1 0
0.878788 1 0
0.868687 1 0
0.858586 1 0
0.848485 1 0
0.838384 1 0
0.828283 1 0
0.818182 1 0
0.808081 1 0
0.79798 1 0
0.787879 1 0
0.777778 1 0
0.767677 1 0
0.757576 1 0
0.747475 1 0
0.737374 1 0
0.727273 1 0
0.717172 1 0
0.707071 1 0
0.69697 1 0
0.686869 1 0
0.676768 1 0
0.666667 1 0
0.656566 1 0
0.646465 1 0
0.636364 1 0
0.626263 1 0
0.616162 1 0
0.606061 1 0
0.59596 1 0
0.585859 1 0
0.575758 1 0
0.565657 1 0
0.555556 1 0
0.545455 1 0
0.535354 1 0
0.525253 1 0
0.515152 1 0
0.505051 1 0
0.494949 1 0
0.484848 1 0
0.474747 1 0
0.464646 1 0
0.454545 1 0
0.444444 1 0
0.434343 1 0
0.424242 1 0
0.414141 1 0
0.40404 1 0
0.393939 1 0
0.383838 1 0
0.373737 1 0
0.363636 1 0
0.353535 1 0
0.343434 1 0
0.333333 1 0
0.323232 1 0
0.313131 1 0
0.30303 1 0
0.292929 1 0
0.282828 1 0
0.272727 1 0
0.262626 1 0
0.252525 1 0
0.242424 1 0
0.232323 1 0
0.222222 1 0
0.212121 1 0
0.20202 1 0
0.191919 1 0
0.181818 1 0
0.171717 1 0
0.161616 1 0
0.151515 1 0
0.141414 1 0
0.131313 1 0
0.121212 1 0
0.111111 1 0
0.10101 1 0
0.0909091 1 0
0.0808081 1 0
0.0707071 1 0
0.0606061 1 0
0.0505051 1 0
0.040404 1 0
0.030303 1 0
0.020202 1 0
0.010101 1 0
0 0.989899 0
0 0.979798 0
0 0.969697 0
0 0.959596 0
0 0.949495 0
0 0.939394 0
0 0.929293 0
0 0.919192 0
0 0.909091 0
0 0.89899 0
0 0.888889 0
0 0.878788 0
0 0.868687 0
0 0.858586 0
0 0.848485 0
0 0.838384 0
0 0.828283 0
0 0.818182 0
0 0.808081 0
0 0.79798 0
0 0.787879 0
0 0.777778 0
0 0.767677 0
0 0.757576 0
0 0.747475 0
0 0.737374 0
0 0.727273 0
0 0.717172 0
0 0.707071 0
0 0.69697 0
0 0.686869 0
0 0.676768 0
0 0.666667 0
0 0.656566 0
0 0.646465 0
0 0.636364 0
0 0.626263 0
0 0.616162 0
0 0.606061 0
0 0.59596 0
0 0.585859 0
0 0.575758 0
0 0.565657 0
0 0.555556 0
0 0.545455 0
0 0.535354 0
0 0.525253 0
0 0.515152 0
0 0.505051 0
0 0.494949 0
0 0.484848 0
0 0.474747 0
0 0.464646 0
0 0.454545 0
0 0.444444 0
0 0.434343 0
0 0.424242 0
0 0.414141 0
0 0.40404 0
0 0.393939 0
0 0.383838 0
0 0.373737 0
0 0.363636 0
0 0.353535 0
0 0.343434 0
0 0.333333 0
0 0.323232 0
0 0.313131 0
0 0.30303 0
0 0.292929 0
0 0.282828 0
0 0.272727 0
0 0.262626 0
0 0.252525 0
0 0.242424 0
0 0.232323 0
0 0.222222 0
0 0.212121 0
0 0.20202 0
0 0.191919 0
0 0.181818 0
0 0.171717 0
0 0.161616 0
0 0.151515 0
0 0.141414 0
0 0.131313 0
0 0.121212 0
0 0.111111 0
0 0.10101 0
0 0.0909091 0
0 0.0808081 0
0 0.0707071 0
0 0.0606061 0
0 0.0505051 0
0 0.040404 0
0 0.030303 0
0 0.020202 0
0 0.010101 0
0.010101 0.989899 0
0.010101 0.979798 0
0.010101 0.969697 0
0.010101 0.959596 0
0.010101 0.949495 0
0.010101 0.939394 0
0.010101 0.929293 0
0.010101 0.919192 0
0.010101 0.909091 0
0.010101 0.89899 0
0.010101 0.888889 0
0.010101 0.878788 0
0.010101 0.868687 0
0.010101 0.858586 0
0.010101 0.848485 0
0.010101 0.838384 0
0.010101 0.828283 0
0.010101 0.818182 0
0.010101 0.808081 0
0.010101 0.79798 0
0.010101 0.787879 0
0.010101 0.777778 0
0.010101 0.767677 0
0.010101 0.757576 0
0.010101 0.747475 0
0.010101 0.737374 0
0.010101 0.727273 0
0.010101 0.717172 0
0.010101 0.707071 0
0.010101 0.69697 0
0.010101 0.686869 0
0.010101 0.676768 0
0.010101 0.666667 0
0.010101 0.656566 0
0.010101 0.646465 0
0.010101 0.636364 0
0.010101 0.626263 0
0.010101 0.616162 0
0.010101 0.606061 0
0.010101 0.59596 0
0.010101 0.585859 0
0.010101 0.575758 0
0.010101 0.565657 0
0.010101 0.555556 0
0.010101 0.545455 0
0.010101 0.535354 0
0.010101 0.525253 0
0.010101 0.515152 0
0.010101 0.505051 0
0.010101 0.494949 0
0.010101 0.484848 0
0.010101 0.474747 0
0.010101 0.464646 0
0.010101 0.454545 0
0.010101 0.444444 0
0.010101 0.434343 0
0.010101 0.424242 0
0.010101 0.414141 0
0.010101 0.40404 0
0.010101 0.393939 0
0.010101 0.383838 0
0.010101 0.373737 0
0.010101 0.363636 0
0.010101 0.353535 0
0.010101 0.343434 0
0.010101 0.333333 0
0.010101 0.323232 0
0.010101 0.313131 0
0.010101 0.30303 0
0.010101 0.292929 0
0.010101 0.282828 0
0.010101 0.272727 0
0.010101 0.262626 0
0.010101 0.252525 0
0.010101 0.242424 0
0.010101 0.232323 0
0.010101 0.222222 0
0.010101 0.212121 0
0.010101 0.20202 0
0.010101 0.191919 0
0.010101 0.181818 0
0.010101 0.171717 0
0.010101 0.161616 0
0.010101 0.151515 0
0.010101 0.141414 0
0.010101 0.131313 0
0.010101 0.121212 0
0.010101 0.111111 0
0.010101 0.10101 0
0.010101 0.0909091 0
0.010101 0.0808081 0
0.010101 0.0707071 0
0.010101 0.0606061 0
0.010101 0.0505051 0
0.010101 0.040404 0
0.010101 0.030303 0
0.010101 0.020202 0
0.010101 0.010101 0
0.020202 0.989899 0
0.020202 0.979798 0
0.020202 0.969697 0
0.020202 0.959596 0
0.020202 0.949495 0
0.020202 0.939394 0
0.020202 0.929293 0
0.020202 0.919192 0
0.020202 0.909091 0
0.020202 0.89899 0
0.020202 0.888889 0
0.020202 0.878788 0
0.020202 0.868687 0
0.020202 0.858586 0
0.020202 0.848485 0
0.020202 0.838384 0
0.020202 0.828283 0
0.020202 0.818182 0
0.020202 0.808081 0
0.020202 0.79798 0
0.020202 0.787879 0
0.020202 0.777778 0
0.020202 0.767677 0
0.020202 0.757576 0
0.020202 0.747475 0
0.020202 0.737374 0
0.020202 0.727273 0
0.020202 0.717172 0
0.020202 0.707071 0
0.020202 0.69697 0
0.020202 0.686869 0
0.020202 0.676768 0
0.020202 0.666667 0
0.020202 0.656566 0
0.020202 0.646465 0
0.020202 0.636364 0
0.020202 0.626263 0
0.020202 0.616162 0
0.020202 0.606061 0
0.020202 0.59596 0
0.020202 0.585859 0
0.020202 0.575758 0
0.020202 0.565657 0
0.020202 0.555556 0
0.020202 0.545455 0
0.020202 0.535354 0
0.020202 0.525253 0
0.020202 0.515152 0
0.020202 0.505051 0
0.020202 0.494949 0
0.020202 0.484848 0
0.020202 0.474747 0
0.020202 0.464646 0
0.020202 0.454545 0
0.020202 0.444444 0
0.020202 0.434343 0
0.020202 0.424242 0
0.020202 0.414141 0
0.020202 0.40404 0
0.020202 0.393939 0
0.020202 0.383838 0
0.020202 0.373737 0
0.020202 0.363636 0
0.020202 0.353535 0
0.020202 0.343434 0
0.020202 0.333333 0
0.020202 0.323232 0
0.020202 0.313131 0
0.020202 0.30303 0
0.020202 0.292929 0
0.020202 0.282828 0
0.020202 0.272727 0
0.020202 0.262626 0
0.020202 0.252525 0
0.020202 0.242424 0
0.020202 0.232323 0
0.020202 0.222222 0
0.020202 0.212121 0
0.020202 0.20202 0
0.020202 0.191919 0
0.020202 0.181818 0
0.020202 0.171717 0
0.020202 0.161616 0
0.020202 0.151515 0
0.020202 0.141414 0
0.020202 0.131313 0
0.020202 0.121212 0
0.020202 0.111111 0
0.020202 0.10101 0
0.020202 0.0909091 0
0.020202 0.0808081 0
0.020202 0.0707071 0
0.020202 0.0606061 0
0.020202 0.0505051 0
0.020202 0.040404 0
0.020202 0.030303 0
0.020202 0.020202 0
0.020202 0.010101 0
0.030303 0.989899 0
0.030303 0.979798 0
0.030303 0.969697 0
0.030303 0.959596 0
0.030303 0.949495 0
0.030303 0.939394 0
0.030303 0.929293 0
0.030303 0.919192 0
0.030303 0.909091 0
0.030303 0.89899 0
0.030303 0.888889 0
0.030303 0.878788 0
0.030303 0.868687 0
0.030303 0.858586 0
0.030303 0.848485 0
0.030303 0.838384 0
0.030303 0.828283 0
0.030303 0.818182 0
0.030303 0.808081 0
0.030303 0.79798 0
0.030303 0.787879 0
0.030303 0.777778 0
0.030303 0.767677 0
0.030303 0.757576 0
0.030303 0.747475 0
0.030303 0.737374 0
0.030303 0.727273 0
0.030303 0.717172 0
0.030303 0.707071 0
0.030303 0.69697 0
0.030303 0.686869 0
0.030303 0.676768 0
0.030303 0.666667 0
0.030303 0.656566 0
0.030303 0.646465 0
0.030303 0.636364 0
0.030303 0.626263 0
0.030303 0.616162 0
0.030303 0.606061 0
0.030303 0.59596 0
0.030303 0.585859 0
0.030303 0.575758 0
0.030303 0.565657 0
[...]
CELL_DATA 9801
VECTORS velocity double
0.212421 0.134216 0.0
-0.00935307 0.19059 0.0
-0.0268947 0.141785 0.0
-0.0199545 0.0980463 0.0
-0.0127423 0.0684722 0.0
-0.00790717 0.0486339 0.0
-0.00494068 0.0352229 0.0
-0.00313609 0.0260999 0.0
-0.0020215 0.0198555 0.0
-0.00131883 0.0155637 0.0
-0.000866682 0.0126128 0.0
-0.000570064 0.0105941 0.0
-0.000371896 0.00923143 0.0
-0.000237138 0.0083368 0.0
-0.000143884 0.00778101 0.0
-7.79425e-05 0.00747476 0.0
-2.89815e-05 0.00735696 0.0
1.04646e-05 0.00739151 0.0
4.36265e-05 0.00754938 0.0
7.15048e-05 0.00781081 0.0
9.53538e-05 0.00815994 0.0
0.000116305 0.00858456 0.0
0.00013517 0.00907549 0.0
0.00015248 0.00962565 0.0
0.000168562 0.0102292 0.0
0.000183598 0.0108813 0.0
0.000197677 0.0115774 0.0
0.000210825 0.0123133 0.0
0.000223027 0.0130847 0.0
0.00023424 0.0138876 0.0
0.000244404 0.0147175 0.0
0.000253442 0.01557 0.0
0.000261274 0.0164406 0.0
0.000267809 0.0173244 0.0
0.000272958 0.0182164 0.0
0.000276631 0.0191114 0.0
0.000278737 0.020004 0.0
0.00027919 0.0208888 0.0
0.00027791 0.02176 0.0
0.000274819 0.0226118 0.0
0.000269847 0.0234382 0.0
0.00026293 0.0242334 0.0
0.000254012 0.0249911 0.0
0.00024304 0.0257053 0.0
0.000229968 0.02637 0.0
0.000214753 0.026979 0.0
0.000197349 0.0275264 0.0
0.000177713 0.0280062 0.0
0.000155777 0.0284127 0.0
0.000131459 0.0287401 0.0
0.000104937 0.0289835 0.0
7.7307e-05 0.0291384 0.0
5.0154e-05 0.0292029 0.0
2.25372e-05 0.0291773 0.0
-7.5407e-06 0.0290549 0.0
-4.00212e-05 0.0288305 0.0
-7.4134e-05 0.0285006 0.0
-0.00010925 0.0280631 0.0
-0.000144873 0.0275175 0.0
-0.000180551 0.0268642 0.0
-0.000215841 0.0261052 0.0
-0.000250293 0.0252435 0.0
-0.000283437 0.0242834 0.0
-0.000314791 0.0232306 0.0
-0.000343864 0.0220918 0.0
-0.000370165 0.0208753 0.0
-0.000393208 0.0195905 0.0
-0.000412531 0.018248 0.0
-0.000427703 0.0168596 0.0
-0.000438344 0.0154382 0.0
-0.00044414 0.0139973 0.0
-0.000444855 0.0125512 0.0
-0.000440355 0.0111148 0.0
-0.000430617 0.00970294 0.0
-0.000415744 0.00833045 0.0
-0.000395975 0.00701169 0.0
-0.000371687 0.00576024 0.0
-0.000343392 0.00458849 0.0
-0.000311732 0.00350735 0.0
-0.000277452 0.00252589 0.0
-0.000241378 0.0016511 0.0
-0.000204368 0.000887675 0.0
-0.000167224 0.000238004 0.0
-0.000130628 -0.000297972 0.0
-9.56114e-05 -0.000722082 0.0
-6.31641e-05 -0.00103911 0.0
-3.3713e-05 -0.00125642 0.0
-7.48296e-06 -0.00138259 0.0
1.53532e-05 -0.00142719 0.0
3.4776e-05 -0.0014005 0.0
5.08709e-05 -0.00131297 0.0
6.36749e-05 -0.00117522 0.0
7.30435e-05 -0.000998273 0.0
7.84677e-05 -0.000794055 0.0
7.88751e-05 -0.000576461 0.0
7.24643e-05 -0.000362526 0.0
5.6616e-05 -0.000173617 0.0
2.85587e-05 -3.89906e-05 0.0
-5.2087e-06 5.20724e-06 0.0
0.26565 0.107791 0.0
-0.0246299 0.169732 0.0
-0.0579125 0.170472 0.0
-0.0503295 0.148368 0.0
-0.0378546 0.121722 0.0
-0.0272869 0.0977381 0.0
-0.0193922 0.0780792 0.0
-0.0137055 0.0626934 0.0
-0.00965513 0.0509913 0.0
-0.00677637 0.0422713 0.0
-0.00472561 0.0358894 0.0
-0.00325695 0.0313108 0.0
-0.00219688 0.028113 0.0
-0.00142372 0.0259719 0.0
-0.000852217 0.0246434 0.0
-0.00042135 0.0239457 0.0
-8.44423e-05 0.023748 0.0
0.000189306 0.0239665 0.0
0.000415149 0.0245167 0.0
0.000603658 0.0253443 0.0
0.000763953 0.0264059 0.0
0.000902993 0.0276675 0.0
0.00102569 0.0291026 0.0
0.00113533 0.0306901 0.0
0.00123404 0.0324118 0.0
0.00132311 0.0342519 0.0
0.00140326 0.036196 0.0
0.00147483 0.0382303 0.0
0.0015379 0.0403415 0.0
0.00159238 0.0425164 0.0
0.00163807 0.0447417 0.0
0.00167469 0.047004 0.0
0.00170192 0.0492898 0.0
0.00171944 0.0515851 0.0
0.00172691 0.0538759 0.0
0.00172401 0.056148 0.0
0.00171046 0.0583869 0.0
0.00168599 0.0605781 0.0
0.00165039 0.062707 0.0
0.00160349 0.0647589 0.0
0.00154516 0.0667193 0.0
0.00147533 0.0685738 0.0
0.00139398 0.0703082 0.0
0.00130115 0.0719086 0.0
0.00119692 0.0733613 0.0
0.00108145 0.0746534 0.0
0.000954963 0.0757721 0.0
0.000817749 0.0767056 0.0
0.000670191 0.0774429 0.0
0.000513056 0.0779741 0.0
0.00034855 0.0782905 0.0
0.000180503 0.0783864 0.0
8.65215e-06 0.0782645 0.0
-0.000171804 0.0779044 0.0
-0.00036229 0.0772972 0.0
-0.000560279 0.0764381 0.0
-0.000762775 0.0753237 0.0
-0.000967178 0.0739536 0.0
-0.00117114 0.0723299 0.0
-0.00137239 0.0704569 0.0
-0.00156868 0.0683417 0.0
-0.00175772 0.0659937 0.0
-0.0019372 0.0634249 0.0
-0.00210476 0.0606498 0.0
-0.00225805 0.0576855 0.0
-0.00239476 0.0545514 0.0
-0.00251263 0.0512696 0.0
-0.00260953 0.0478641 0.0
-0.00268351 0.0443615 0.0
-0.00273284 0.0407902 0.0
-0.00275611 0.0371801 0.0
-0.00275227 0.0335627 0.0
-0.00272071 0.0299705 0.0
-0.00266134 0.0264361 0.0
-0.00257461 0.0229925 0.0
-0.00246163 0.0196718 0.0
-0.00232411 0.0165047 0.0
-0.00216445 0.0135199 0.0
-0.00198565 0.0107435 0.0
-0.00179127 0.00819771 0.0
-0.00158537 0.00590099 0.0
-0.00137225 0.00386691 0.0
-0.00115632 0.00210409 0.0
-0.000941659 0.000615925 0.0
-0.000732211 -0.000601111 0.0
-0.000533737 -0.00154986 0.0
-0.000350095 -0.00224555 0.0
-0.000183469 -0.00270662 0.0
-3.54755e-05 -0.00295439 0.0
9.27764e-05 -0.00301259 0.0
0.000200704 -0.00290718 0.0
0.000287732 -0.00266523 0.0
0.000352552 -0.00231541 0.0
0.000392526 -0.0018888 0.0
0.000403195 -0.00142029 0.0
0.000378098 -0.000949648 0.0
0.000309314 -0.00052136 0.0
0.000190567 -0.000190426 0.0
3.91425e-05 -2.86048e-05 0.0
0.372474 0.0745488 0.0
0.0272829 0.121455 0.0
-0.0566893 0.150231 0.0
-0.0673529 0.147921 0.0
-0.0594689 0.133087 0.0
-0.0479779 0.115396 0.0
-0.0371574 0.0985305 0.0
-0.0281091 0.083909 0.0
-0.0209154 0.0719096 0.0
-0.01534 0.0624261 0.0
-0.0110757 0.0551633 0.0
-0.00783308 0.0497784 0.0
-0.00536844 0.0459447 0.0
-0.00348721 0.0433777 0.0
-0.00203837 0.0418409 0.0
-0.000904725 0.0411438 0.0
6.00499e-06 0.0411468 0.0
0.000752298 0.041732 0.0
0.00136712 0.0427924 0.0
0.00188048 0.0442519 0.0
0.0023164 0.0460486 0.0
0.00269243 0.0481331 0.0
0.00302092 0.0504655 0.0
0.00331027 0.0530121 0.0
0.00356602 0.0557439 0.0
0.00379167 0.0586345 0.0
0.00398931 0.0616596 0.0
0.00416007 0.0647962 0.0
0.00430444 0.068022 0.0
0.00442246 0.0713151 0.0
0.0045139 0.0746538 0.0
0.00457838 0.0780167 0.0
0.00461543 0.0813822 0.0
0.00462456 0.084729 0.0
0.00460529 0.0880355 0.0
0.00455722 0.0912805 0.0
0.00448002 0.0944429 0.0
0.00437348 0.0975018 0.0
0.00423747 0.100437 0.0
0.00407203 0.103227 0.0
0.0038773 0.105854 0.0
0.00365358 0.108297 0.0
0.00340129 0.110539 0.0
0.00312103 0.112562 0.0
0.00281354 0.114349 0.0
0.00247978 0.115883 0.0
0.0021209 0.117151 0.0
0.00173833 0.118139 0.0
0.00133396 0.118835 0.0
0.000910994 0.119228 0.0
0.000474711 0.11931 0.0
2.69769e-05 0.119082 0.0
-0.000438596 0.118521 0.0
-0.000925286 0.117613 0.0
-0.0014283 0.116357 0.0
-0.00194142 0.114751 0.0
-0.00245896 0.112796 0.0
-0.0029756 0.110497 0.0
-0.00348619 0.107859 0.0
-0.00398563 0.104893 0.0
-0.00446883 0.10161 0.0
-0.00493063 0.0980255 0.0
-0.00536586 0.0941569 0.0
-0.00576932 0.0900249 0.0
-0.00613583 0.0856528 0.0
-0.00646033 0.0810669 0.0
-0.0067379 0.0762961 0.0
-0.00696391 0.0713716 0.0
-0.0071341 0.0663275 0.0
-0.0072447 0.0611999 0.0
-0.00729256 0.0560269 0.0
-0.0072753 0.0508483 0.0
-0.00719146 0.0457052 0.0
-0.00704064 0.0406395 0.0
-0.00682365 0.0356931 0.0
-0.00654261 0.0309078 0.0
-0.00620109 0.0263239 0.0
-0.0058041 0.0219799 0.0
-0.00535814 0.0179114 0.0
-0.00487107 0.0141502 0.0
-0.00435197 0.0107236 0.0
-0.00381085 0.00765318 0.0
-0.0032583 0.00495449 0.0
-0.00270487 0.00263642 0.0
-0.00216043 0.00070019 0.0
-0.00163523 -0.000860987 0.0
-0.00114323 -0.00205294 0.0
-0.00069212 -0.00289966 0.0
-0.000287089 -0.00342874 0.0
6.77987e-05 -0.00367186 0.0
0.000369199 -0.00366449 0.0
0.000614516 -0.00344581 0.0
0.000799963 -0.00305748 0.0
0.000919343 -0.00254433 0.0
0.000963399 -0.00195564 0.0
0.000919958 -0.00134567 0.0
0.000775602 -0.000772337 0.0
0.00052106 -0.00030734 0.0
0.000173618 -5.62097e-05 0.0
0.457179 0.053838 0.0
0.0793948 0.0949932 0.0
-0.0412372 0.128093 0.0
-0.071304 0.135109 0.0
-0.0716437 0.129279 0.0
-0.0625084 0.118527 0.0
-0.051218 0.106565 0.0
-0.040485 0.095225 0.0
-0.0312093 0.0853246 0.0
-0.0235516 0.0771355 0.0
-0.0173823 0.0706576 0.0
-0.0124759 0.0657648 0.0
-0.00859498 0.0622821 0.0
-0.00552408 0.060026 0.0
-0.00307961 0.0588231 0.0
-0.00110922 0.0585205 0.0
0.000505135 0.059009 0.0
0.00183753 0.0601404 0.0
0.00294116 0.0618193 0.0
0.0038664 0.0639605 0.0
0.00465266 0.0664945 0.0
0.00532861 0.0693638 0.0
0.00591457 0.0725194 0.0
0.0064246 0.0759185 0.0
0.00686816 0.0795229 0.0
0.00725144 0.0832975 0.0
0.00757836 0.0872094 0.0
0.00785125 0.0912275 0.0
0.00807137 0.0953218 0.0
0.00823929 0.099463 0.0
0.00835514 0.103623 0.0
0.0084188 0.107773 0.0
0.00843004 0.111886 0.0
0.00838862 0.115935 0.0
0.00829437 0.119894 0.0
0.00814725 0.123737 0.0
0.00794734 0.127439 0.0
0.00769495 0.130976 0.0
0.00739057 0.134324 0.0
0.0070349 0.13746 0.0
0.00662887 0.140363 0.0
0.00617365 0.143012 0.0
0.00567062 0.145388 0.0
0.00512145 0.147472 0.0
0.00452806 0.149248 0.0
0.00389269 0.150699 0.0
0.00321794 0.151813 0.0
0.00250685 0.152576 0.0
0.00176353 0.152977 0.0
0.000993876 0.153006 0.0
0.000202515 0.152661 0.0
-0.000616372 0.151932 0.0
-0.00146698 0.150787 0.0
-0.00234269 0.149237 0.0
-0.00323405 0.147281 0.0
-0.00413275 0.144924 0.0
-0.00503081 0.142172 0.0
-0.00592034 0.139033 0.0
-0.00679351 0.135518 0.0
-0.00764248 0.131639 0.0
-0.00845933 0.127414 0.0
-0.00923612 0.122859 0.0
-0.00996483 0.117996 0.0
-0.0106374 0.11285 0.0
-0.011246 0.107445 0.0
-0.0117827 0.101811 0.0
-0.0122399 0.0959796 0.0
-0.0126106 0.0899847 0.0
-0.0128879 0.0838627 0.0
-0.0130659 0.0776523 0.0
-0.0131396 0.0713944 0.0
-0.0131049 0.0651315 0.0
-0.0129594 0.0589078 0.0
-0.0127017 0.0527685 0.0
-0.0123328 0.0467594 0.0
-0.0118554 0.0409264 0.0
-0.0112744 0.0353146 0.0
-0.010597 0.0299677 0.0
-0.00983311 0.0249272 0.0
-0.00899458 0.0202312 0.0
-0.00809567 0.0159136 0.0
-0.00715244 0.0120028 0.0
-0.00618233 0.00852141 0.0
-0.00520346 0.00548451 0.0
-0.00423379 0.00289941 0.0
-0.00329077 0.000764474 0.0
-0.00239223 -0.000930595 0.0
-0.00156089 -0.00219509 0.0
-0.000808165 -0.00306025 0.0
-0.000142673 -0.00356163 0.0
0.000427749 -0.00373972 0.0
0.000896423 -0.00364077 0.0
0.00125628 -0.00331578 0.0
0.00149718 -0.00281893 0.0
0.00160492 -0.00220912 0.0
0.00156154 -0.00155018 0.0
0.00134732 -0.000909404 0.0
0.000946057 -0.000371928 0.0
0.000360631 -7.08436e-05 0.0
0.518024 0.0399851 0.0
0.124069 0.0764531 0.0
-0.0214371 0.10906 0.0
-0.0679343 0.120759 0.0
-0.0766843 0.120993 0.0
-0.0710878 0.115903 0.0
-0.0606777 0.10869 0.0
-0.0494626 0.101119 0.0
-0.0390648 0.094114 0.0
-0.0300378 0.0881093 0.0
-0.0224607 0.083276 0.0
-0.0162135 0.0796411 0.0
-0.0111075 0.0771557 0.0
-0.00694327 0.0757339 0.0
-0.00353424 0.075273 0.0
-0.000716452 0.0756734 0.0
0.00162709 0.0768584 0.0
0.00357114 0.0786691 0.0
0.00519419 0.0810336 0.0
0.00656261 0.0838706 0.0
0.00772719 0.0871117 0.0
0.00872541 0.0906971 0.0
0.0095843 0.0945733 0.0
0.0103229 0.0986917 0.0
0.0109545 0.103008 0.0
0.0114881 0.10748 0.0
0.0119296 0.112068 0.0
0.0122829 0.116737 0.0
0.0125505 0.121449 0.0
0.012734 0.12617 0.0
0.0128345 0.130868 0.0
0.0128525 0.13551 0.0
0.0127887 0.140065 0.0
0.0126436 0.144504 0.0
0.0124179 0.148797 0.0
0.0121126 0.152917 0.0
0.0117286 0.156837 0.0
0.0112674 0.160533 0.0
0.0107305 0.16398 0.0
0.0101198 0.167157 0.0
0.00943755 0.170041 0.0
0.00868618 0.172613 0.0
0.00786848 0.174856 0.0
0.00698754 0.176752 0.0
0.00604678 0.178287 0.0
0.00504997 0.179447 0.0
0.00400127 0.180219 0.0
0.00290562 0.180594 0.0
0.00176962 0.180562 0.0
0.000600062 0.180115 0.0
-0.000606453 0.17926 0.0
-0.00185368 0.17795 0.0
-0.00313432 0.176206 0.0
-0.00443538 0.17403 0.0
-0.00574637 0.171428 0.0
-0.00705747 0.168409 0.0
-0.00835878 0.16498 0.0
-0.00964029 0.161153 0.0
-0.0108919 0.156942 0.0
-0.0121035 0.152362 0.0
-0.0132646 0.147429 0.0
-0.014365 0.142164 0.0
-0.0153941 0.136588 0.0
-0.0163414 0.130726 0.0
-0.0171964 0.124604 0.0
-0.0179489 0.118252 0.0
-0.0185888 0.1117 0.0
-0.0191064 0.104982 0.0
-0.0194929 0.0981345 0.0
-0.01974 0.0911959 0.0
-0.0198406 0.0842064 0.0
-0.0197891 0.0772085 0.0
-0.0195814 0.0702462 0.0
-0.0192154 0.0633651 0.0
-0.0186912 0.0566117 0.0
-0.0180116 0.0500332 0.0
-0.0171824 0.0436765 0.0
-0.0162123 0.0375879 0.0
-0.0151135 0.0318122 0.0
-0.0139014 0.0263915 0.0
-0.0125947 0.0213647 0.0
-0.0112151 0.0167659 0.0
-0.00978656 0.0126236 0.0
-0.00833481 0.00895937 0.0
-0.00688638 0.00578708 0.0
-0.00546778 0.00311154 0.0
-0.00410504 0.000928161 0.0
-0.00282318 -0.000777379 0.0
-0.00165316 -0.0020186 0.0
-0.000610269 -0.00283309 0.0
0.000292147 -0.00326367 0.0
0.00104103 -0.00335875 0.0
0.00162492 -0.00317565 0.0
0.00202954 -0.00277503 0.0
0.00223572 -0.00222221 0.0
0.00221937 -0.00158766 0.0
0.00195304 -0.000945792 0.0
0.00140956 -0.000391713 0.0
0.000569603 -7.54216e-05 0.0
0.564721 0.0300461 0.0
0.163489 0.0621722 0.0
0.000105497 0.0932059 0.0
-0.0602881 0.107711 0.0
-0.0767699 0.112091 0.0
-0.0749632 0.111397 0.0
-0.0660502 0.108261 0.0
-0.0550565 0.10424 0.0
-0.0441966 0.100214 0.0
-0.0343619 0.0966596 0.0
-0.0258236 0.0938248 0.0
-0.0185723 0.091825 0.0
-0.0124815 0.0906956 0.0
-0.00738559 0.0904232 0.0
-0.00311472 0.0909654 0.0
0.000481182 0.0922893 0.0
0.00349845 0.0942614 0.0
0.00602202 0.0968166 0.0
0.00814666 0.0998829 0.0
0.00994735 0.103391 0.0
0.0114813 0.107279 0.0
0.0127915 0.111487 0.0
0.0139096 0.115962 0.0
0.0148587 0.120652 0.0
0.0156552 0.125509 0.0
0.0163107 0.130489 0.0
0.0168335 0.135547 0.0
0.0172293 0.140644 0.0
0.0175023 0.14574 0.0
0.0176555 0.150798 0.0
0.0176915 0.155783 0.0
0.0176123 0.160661 0.0
0.0174198 0.165401 0.0
0.017116 0.16997 0.0
0.016703 0.174342 0.0
0.0161832 0.178487 0.0
0.015559 0.182382 0.0
0.0148334 0.186002 0.0
0.0140096 0.189324 0.0
0.0130909 0.19233 0.0
0.0120812 0.194998 0.0
0.0109846 0.197314 0.0
0.00980545 0.19926 0.0
0.00854845 0.200824 0.0
0.00721862 0.201993 0.0
0.00582129 0.202757 0.0
0.0043622 0.203106 0.0
0.00284816 0.203031 0.0
0.00128685 0.202527 0.0
-0.000319307 0.201597 0.0
-0.00197302 0.200207 0.0
-0.00366814 0.198371 0.0
-0.00538879 0.196097 0.0
-0.0071223 0.193393 0.0
-0.00885748 0.190264 0.0
-0.0105831 0.186722 0.0
-0.0122877 0.182777 0.0
-0.0139596 0.17844 0.0
-0.0155869 0.173725 0.0
-0.0171574 0.168649 0.0
-0.0186588 0.163227 0.0
-0.0200787 0.15748 0.0
-0.0214045 0.151427 0.0
-0.0226233 0.145093 0.0
-0.0237225 0.138503 0.0
-0.0246896 0.131683 0.0
-0.025512 0.124664 0.0
-0.026178 0.117478 0.0
-0.0266763 0.110159 0.0
-0.0269965 0.102743 0.0
-0.0271295 0.0952698 0.0
-0.0270677 0.087779 0.0
-0.0268052 0.0803139 0.0
-0.0263385 0.0729187 0.0
-0.0256669 0.0656392 0.0
-0.0247926 0.0585224 0.0
-0.0237213 0.0516156 0.0
-0.0224627 0.0449661 0.0
-0.0210304 0.0386204 0.0
-0.0194426 0.0326236 0.0
-0.0177214 0.0270178 0.0
-0.0158933 0.0218418 0.0
-0.0139883 0.0171292 0.0
-0.0120392 0.0129077 0.0
-0.0100808 0.00919741 0.0
-0.00814896 0.00600988 0.0
-0.00627936 0.00334713 0.0
-0.00450671 0.00120092 0.0
-0.00286381 -0.000446296 0.0
-0.0013867 -0.00161594 0.0
-9.7411e-05 -0.00234988 0.0
0.000984136 -0.00269757 0.0
0.00183965 -0.00271743 0.0
0.0024504 -0.00247544 0.0
0.00279201 -0.00204128 0.0
0.00283383 -0.00149012 0.0
0.00253954 -0.000901695 0.0
0.00186892 -0.000377256 0.0
0.000778896 -7.30437e-05 0.0
0.602132 0.0228663 0.0
0.198766 0.0513958 0.0
0.0220508 0.0806244 0.0
-0.0498368 0.0966294 0.0
-0.0731832 0.10395 0.0
-0.075057 0.106667 0.0
-0.0678903 0.106912 0.0
-0.0575187 0.106019 0.0
-0.0466358 0.104773 0.0
-0.0364104 0.103632 0.0
-0.027277 0.102864 0.0
-0.0193258 0.102626 0.0
-0.0124934 0.103001 0.0
-0.00665389 0.104019 0.0
-0.00166587 0.105685 0.0
0.00258447 0.107995 0.0
0.00617081 0.110811 0.0
0.00920188 0.11412 0.0
0.0117738 0.117865 0.0
0.0139623 0.121991 0.0
0.0158261 0.126443 0.0
0.0174109 0.131168 0.0
0.0187507 0.136114 0.0
0.0198713 0.141229 0.0
0.0207915 0.146465 0.0
0.0215256 0.151775 0.0
0.0220839 0.157116 0.0
0.0224744 0.162447 0.0
0.0227032 0.167726 0.0
0.0227756 0.172918 0.0
0.0226957 0.177986 0.0
0.0224677 0.182899 0.0
0.0220952 0.187623 0.0
0.0215821 0.192131 0.0
0.0209325 0.196396 0.0
0.0201505 0.200391 0.0
0.0192405 0.204096 0.0
0.0182073 0.207487 0.0
0.0170558 0.210547 0.0
0.0157914 0.213257 0.0
0.0144194 0.215602 0.0
0.0129459 0.217569 0.0
0.0113768 0.219146 0.0
0.00971836 0.220321 0.0
0.00797723 0.221086 0.0
0.00616011 0.221434 0.0
0.0042743 0.221356 0.0
0.00232809 0.220847 0.0
0.000328294 0.219907 0.0
-0.00172646 0.218532 0.0
-0.00382885 0.216704 0.0
-0.00596315 0.214445 0.0
-0.00811433 0.211761 0.0
-0.0102701 0.208659 0.0
-0.0124184 0.205148 0.0
-0.014547 0.201238 0.0
-0.016643 0.196937 0.0
-0.0186934 0.192259 0.0
-0.020685 0.187216 0.0
-0.0226039 0.181822 0.0
-0.0244361 0.176094 0.0
-0.0261674 0.170048 0.0
-0.0277832 0.163703 0.0
-0.0292688 0.157082 0.0
-0.0306094 0.150207 0.0
-0.0317903 0.143104 0.0
-0.0327969 0.135799 0.0
-0.033615 0.128323 0.0
-0.0342311 0.120707 0.0
-0.0346327 0.112986 0.0
-0.0348084 0.105195 0.0
-0.0347484 0.097374 0.0
-0.034445 0.0895627 0.0
-0.0338931 0.0818044 0.0
-0.0330903 0.0741432 0.0
-0.0320379 0.0666253 0.0
-0.030741 0.0592976 0.0
-0.0292094 0.0522077 0.0
-0.0274576 0.0454032 0.0
-0.0255052 0.0389307 0.0
-0.0233772 0.0328352 0.0
-0.021104 0.027159 0.0
-0.0187205 0.0219403 0.0
-0.0162661 0.017212 0.0
-0.0137835 0.0130001 0.0
-0.0113172 0.00932296 0.0
-0.008913 0.00618922 0.0
-0.00661583 0.00359741 0.0
-0.0044693 0.00153536 0.0
-0.00251374 -1.90177e-05 0.0
-0.00078854 -0.00109626 0.0
0.000673981 -0.00174245 0.0
0.0018467 -0.00201344 0.0
0.0027056 -0.00197882 0.0
0.00322087 -0.00171159 0.0
0.00335504 -0.00129015 0.0
0.00306255 -0.000797871 0.0
0.00229001 -0.00033861 0.0
0.000972924 -6.62307e-05 0.0
0.632672 0.0176722 0.0
0.230496 0.0432929 0.0
0.0435123 0.0708669 0.0
-0.0375479 0.0875371 0.0
-0.0668467 0.0970021 0.0
-0.072125 0.102374 0.0
-0.0667501 0.105391 0.0
-0.0572084 0.10718 0.0
-0.0465813 0.108417 0.0
-0.0362618 0.109514 0.0
-0.0268174 0.110729 0.0
-0.0184226 0.112229 0.0
-0.0110705 0.114119 0.0
-0.00467707 0.116457 0.0
0.000860663 0.119291 0.0
0.00560153 0.122531 0.0
0.00963719 0.126173 0.0
0.0130808 0.130199 0.0
0.0160212 0.134568 0.0
0.0185293 0.139239 0.0
0.020662 0.144166 0.0
0.0224644 0.149301 0.0
0.0239716 0.154595 0.0
0.0252105 0.160001 0.0
0.0262021 0.165472 0.0
0.0269626 0.170964 0.0
0.0275046 0.176433 0.0
0.0278385 0.18184 0.0
0.0279727 0.187146 0.0
0.0279146 0.192317 0.0
0.0276708 0.197318 0.0
0.0272476 0.202119 0.0
0.026651 0.206693 0.0
0.025887 0.211011 0.0
0.0249618 0.215052 0.0
0.0238817 0.218792 0.0
0.0226532 0.222213 0.0
0.0212831 0.225297 0.0
0.0197782 0.228028 0.0
0.0181456 0.230393 0.0
0.0163928 0.23238 0.0
0.0145271 0.233978 0.0
0.0125562 0.235179 0.0
0.0104879 0.235976 0.0
0.00832994 0.236362 0.0
0.00609046 0.236332 0.0
0.00377809 0.235882 0.0
0.00140162 0.235008 0.0
-0.0010353 0.23372 0.0
-0.00352595 0.231989 0.0
-0.00605752 0.22984 0.0
-0.00861188 0.227279 0.0
-0.0111755 0.224313 0.0
-0.0137359 0.220949 0.0
-0.0162802 0.217192 0.0
-0.0187952 0.213053 0.0
-0.0212672 0.20854 0.0
-0.0236821 0.203663 0.0
-0.0260252 0.198434 0.0
-0.0282815 0.192864 0.0
-0.0304353 0.186969 0.0
-0.0324709 0.180763 0.0
-0.0343718 0.174264 0.0
-0.0361215 0.16749 0.0
-0.0377032 0.160462 0.0
-0.0391001 0.153203 0.0
-0.0402955 0.145738 0.0
-0.0412729 0.138093 0.0
-0.0420166 0.130299 0.0
-0.0425118 0.122387 0.0
-0.0427447 0.11439 0.0
-0.0427033 0.106346 0.0
-0.0423779 0.0982921 0.0
-0.0417611 0.0902698 0.0
-0.0408489 0.0823219 0.0
-0.0396409 0.0744932 0.0
-0.0381414 0.0668298 0.0
-0.0363594 0.0593793 0.0
-0.0343094 0.0521897 0.0
-0.0320121 0.0453088 0.0
-0.0294942 0.0387839 0.0
-0.0267889 0.0326601 0.0
-0.0239356 0.0269794 0.0
-0.0209792 0.0217794 0.0
-0.0179693 0.0170921 0.0
-0.0149591 0.0129416 0.0
-0.0120039 0.00934341 0.0
-0.00915931 0.00630302 0.0
-0.00647988 0.00381471 0.0
-0.00401769 0.0018615 0.0
-0.00182068 0.000415524 0.0
6.86112e-05 -0.000564153 0.0
0.00160331 -0.00112545 0.0
0.00275242 -0.0013366 0.0
0.0034808 -0.00127362 0.0
0.00374424 -0.00101718 0.0
0.00348841 -0.000652858 0.0
0.00264806 -0.000284254 0.0
0.00114137 -5.68919e-05 0.0
0.658039 0.0138684 0.0
0.259318 0.0370544 0.0
0.0645774 0.0631074 0.0